Program Version,EnergyPlus, Version 9.0.1-bb7ca4f0da, YMD=2019.12.17 18:14
1,5,Environment Title[],Latitude[deg],Longitude[deg],Time Zone[],Elevation[m]
2,8,Day of Simulation[],Month[],Day of Month[],DST Indicator[1=yes 0=no],Hour[],StartMinute[],EndMinute[],DayType
3,5,Cumulative Day of Simulation[],Month[],Day of Month[],DST Indicator[1=yes 0=no],DayType  ! When Daily Report Variables Requested
4,2,Cumulative Days of Simulation[],Month[]  ! When Monthly Report Variables Requested
5,1,Cumulative Days of Simulation[] ! When Run Period Report Variables Requested
6,1,Calendar Year of Simulation[] ! When Annual Report Variables Requested
7,1,Environment,Site Outdoor Air Drybulb Temperature [C] !TimeStep
8,1,Environment,Site Outdoor Air Drybulb Temperature [C] !Hourly
End of Data Dictionary
1,FRESNO_723890_CZ2010,  36.78,-119.72,  -8.00, 102.00
2,1, 1, 1, 0, 1, 0.00,15.00,Holiday
7,8.475000000000002
2,1, 1, 1, 0, 1,15.00,30.00,Holiday
7,8.05
2,1, 1, 1, 0, 1,30.00,45.00,Holiday
7,7.625
2,1, 1, 1, 0, 1,45.00,60.00,Holiday
7,7.2
2,1, 1, 1, 0, 1, 0.00,60.00,Holiday
8,7.8375
2,1, 1, 1, 0, 2, 0.00,15.00,Holiday
7,7.4750000000000009
2,1, 1, 1, 0, 2,15.00,30.00,Holiday
7,7.75
2,1, 1, 1, 0, 2,30.00,45.00,Holiday
7,8.025
2,1, 1, 1, 0, 2,45.00,60.00,Holiday
7,8.3
2,1, 1, 1, 0, 2, 0.00,60.00,Holiday
8,7.8875
2,1, 1, 1, 0, 3, 0.00,15.00,Holiday
7,8.3
2,1, 1, 1, 0, 3,15.00,30.00,Holiday
7,8.3
2,1, 1, 1, 0, 3,30.00,45.00,Holiday
7,8.3
2,1, 1, 1, 0, 3,45.00,60.00,Holiday
7,8.3
2,1, 1, 1, 0, 3, 0.00,60.00,Holiday
8,8.3
2,1, 1, 1, 0, 4, 0.00,15.00,Holiday
7,8.575000000000001
2,1, 1, 1, 0, 4,15.00,30.00,Holiday
7,8.850000000000002
2,1, 1, 1, 0, 4,30.00,45.00,Holiday
7,9.125
2,1, 1, 1, 0, 4,45.00,60.00,Holiday
7,9.4
2,1, 1, 1, 0, 4, 0.00,60.00,Holiday
8,8.9875
2,1, 1, 1, 0, 5, 0.00,15.00,Holiday
7,9.275
2,1, 1, 1, 0, 5,15.00,30.00,Holiday
7,9.15
2,1, 1, 1, 0, 5,30.00,45.00,Holiday
7,9.025
2,1, 1, 1, 0, 5,45.00,60.00,Holiday
7,8.9
2,1, 1, 1, 0, 5, 0.00,60.00,Holiday
8,9.0875
2,1, 1, 1, 0, 6, 0.00,15.00,Holiday
7,9.175
2,1, 1, 1, 0, 6,15.00,30.00,Holiday
7,9.45
2,1, 1, 1, 0, 6,30.00,45.00,Holiday
7,9.725
2,1, 1, 1, 0, 6,45.00,60.00,Holiday
7,10.0
2,1, 1, 1, 0, 6, 0.00,60.00,Holiday
8,9.5875
2,1, 1, 1, 0, 7, 0.00,15.00,Holiday
7,10.15
2,1, 1, 1, 0, 7,15.00,30.00,Holiday
7,10.3
2,1, 1, 1, 0, 7,30.00,45.00,Holiday
7,10.45
2,1, 1, 1, 0, 7,45.00,60.00,Holiday
7,10.6
2,1, 1, 1, 0, 7, 0.00,60.00,Holiday
8,10.375
2,1, 1, 1, 0, 8, 0.00,15.00,Holiday
7,10.6
2,1, 1, 1, 0, 8,15.00,30.00,Holiday
7,10.6
2,1, 1, 1, 0, 8,30.00,45.00,Holiday
7,10.6
2,1, 1, 1, 0, 8,45.00,60.00,Holiday
7,10.6
2,1, 1, 1, 0, 8, 0.00,60.00,Holiday
8,10.6
2,1, 1, 1, 0, 9, 0.00,15.00,Holiday
7,10.174999999999999
2,1, 1, 1, 0, 9,15.00,30.00,Holiday
7,9.75
2,1, 1, 1, 0, 9,30.00,45.00,Holiday
7,9.325000000000001
2,1, 1, 1, 0, 9,45.00,60.00,Holiday
7,8.9
2,1, 1, 1, 0, 9, 0.00,60.00,Holiday
8,9.5375
2,1, 1, 1, 0,10, 0.00,15.00,Holiday
7,8.9
2,1, 1, 1, 0,10,15.00,30.00,Holiday
7,8.9
2,1, 1, 1, 0,10,30.00,45.00,Holiday
7,8.9
2,1, 1, 1, 0,10,45.00,60.00,Holiday
7,8.9
2,1, 1, 1, 0,10, 0.00,60.00,Holiday
8,8.9
2,1, 1, 1, 0,11, 0.00,15.00,Holiday
7,8.9
2,1, 1, 1, 0,11,15.00,30.00,Holiday
7,8.9
2,1, 1, 1, 0,11,30.00,45.00,Holiday
7,8.9
2,1, 1, 1, 0,11,45.00,60.00,Holiday
7,8.9
2,1, 1, 1, 0,11, 0.00,60.00,Holiday
8,8.9
2,1, 1, 1, 0,12, 0.00,15.00,Holiday
7,9.025
2,1, 1, 1, 0,12,15.00,30.00,Holiday
7,9.15
2,1, 1, 1, 0,12,30.00,45.00,Holiday
7,9.275
2,1, 1, 1, 0,12,45.00,60.00,Holiday
7,9.4
2,1, 1, 1, 0,12, 0.00,60.00,Holiday
8,9.2125
2,1, 1, 1, 0,13, 0.00,15.00,Holiday
7,9.55
2,1, 1, 1, 0,13,15.00,30.00,Holiday
7,9.7
2,1, 1, 1, 0,13,30.00,45.00,Holiday
7,9.85
2,1, 1, 1, 0,13,45.00,60.00,Holiday
7,10.0
2,1, 1, 1, 0,13, 0.00,60.00,Holiday
8,9.775
2,1, 1, 1, 0,14, 0.00,15.00,Holiday
7,10.425
2,1, 1, 1, 0,14,15.00,30.00,Holiday
7,10.85
2,1, 1, 1, 0,14,30.00,45.00,Holiday
7,11.274999999999999
2,1, 1, 1, 0,14,45.00,60.00,Holiday
7,11.7
2,1, 1, 1, 0,14, 0.00,60.00,Holiday
8,11.0625
2,1, 1, 1, 0,15, 0.00,15.00,Holiday
7,11.7
2,1, 1, 1, 0,15,15.00,30.00,Holiday
7,11.7
2,1, 1, 1, 0,15,30.00,45.00,Holiday
7,11.7
2,1, 1, 1, 0,15,45.00,60.00,Holiday
7,11.7
2,1, 1, 1, 0,15, 0.00,60.00,Holiday
8,11.7
2,1, 1, 1, 0,16, 0.00,15.00,Holiday
7,11.124999999999999
2,1, 1, 1, 0,16,15.00,30.00,Holiday
7,10.55
2,1, 1, 1, 0,16,30.00,45.00,Holiday
7,9.975000000000002
2,1, 1, 1, 0,16,45.00,60.00,Holiday
7,9.4
2,1, 1, 1, 0,16, 0.00,60.00,Holiday
8,10.2625
2,1, 1, 1, 0,17, 0.00,15.00,Holiday
7,9.125
2,1, 1, 1, 0,17,15.00,30.00,Holiday
7,8.850000000000002
2,1, 1, 1, 0,17,30.00,45.00,Holiday
7,8.575000000000001
2,1, 1, 1, 0,17,45.00,60.00,Holiday
7,8.3
2,1, 1, 1, 0,17, 0.00,60.00,Holiday
8,8.712500000000003
2,1, 1, 1, 0,18, 0.00,15.00,Holiday
7,8.3
2,1, 1, 1, 0,18,15.00,30.00,Holiday
7,8.3
2,1, 1, 1, 0,18,30.00,45.00,Holiday
7,8.3
2,1, 1, 1, 0,18,45.00,60.00,Holiday
7,8.3
2,1, 1, 1, 0,18, 0.00,60.00,Holiday
8,8.3
2,1, 1, 1, 0,19, 0.00,15.00,Holiday
7,8.3
2,1, 1, 1, 0,19,15.00,30.00,Holiday
7,8.3
2,1, 1, 1, 0,19,30.00,45.00,Holiday
7,8.3
2,1, 1, 1, 0,19,45.00,60.00,Holiday
7,8.3
2,1, 1, 1, 0,19, 0.00,60.00,Holiday
8,8.3
2,1, 1, 1, 0,20, 0.00,15.00,Holiday
7,8.3
2,1, 1, 1, 0,20,15.00,30.00,Holiday
7,8.3
2,1, 1, 1, 0,20,30.00,45.00,Holiday
7,8.3
2,1, 1, 1, 0,20,45.00,60.00,Holiday
7,8.3
2,1, 1, 1, 0,20, 0.00,60.00,Holiday
8,8.3
2,1, 1, 1, 0,21, 0.00,15.00,Holiday
7,8.450000000000001
2,1, 1, 1, 0,21,15.00,30.00,Holiday
7,8.600000000000002
2,1, 1, 1, 0,21,30.00,45.00,Holiday
7,8.75
2,1, 1, 1, 0,21,45.00,60.00,Holiday
7,8.9
2,1, 1, 1, 0,21, 0.00,60.00,Holiday
8,8.675
2,1, 1, 1, 0,22, 0.00,15.00,Holiday
7,8.9
2,1, 1, 1, 0,22,15.00,30.00,Holiday
7,8.9
2,1, 1, 1, 0,22,30.00,45.00,Holiday
7,8.9
2,1, 1, 1, 0,22,45.00,60.00,Holiday
7,8.9
2,1, 1, 1, 0,22, 0.00,60.00,Holiday
8,8.9
2,1, 1, 1, 0,23, 0.00,15.00,Holiday
7,8.775
2,1, 1, 1, 0,23,15.00,30.00,Holiday
7,8.65
2,1, 1, 1, 0,23,30.00,45.00,Holiday
7,8.525
2,1, 1, 1, 0,23,45.00,60.00,Holiday
7,8.4
2,1, 1, 1, 0,23, 0.00,60.00,Holiday
8,8.5875
2,1, 1, 1, 0,24, 0.00,15.00,Holiday
7,8.525
2,1, 1, 1, 0,24,15.00,30.00,Holiday
7,8.65
2,1, 1, 1, 0,24,30.00,45.00,Holiday
7,8.775
2,1, 1, 1, 0,24,45.00,60.00,Holiday
7,8.9
2,1, 1, 1, 0,24, 0.00,60.00,Holiday
8,8.7125
2,2, 1, 2, 0, 1, 0.00,15.00,Friday
7,8.925
2,2, 1, 2, 0, 1,15.00,30.00,Friday
7,8.95
2,2, 1, 2, 0, 1,30.00,45.00,Friday
7,8.975
2,2, 1, 2, 0, 1,45.00,60.00,Friday
7,9.0
2,2, 1, 2, 0, 1, 0.00,60.00,Friday
8,8.9625
2,2, 1, 2, 0, 2, 0.00,15.00,Friday
7,8.975
2,2, 1, 2, 0, 2,15.00,30.00,Friday
7,8.95
2,2, 1, 2, 0, 2,30.00,45.00,Friday
7,8.925
2,2, 1, 2, 0, 2,45.00,60.00,Friday
7,8.9
2,2, 1, 2, 0, 2, 0.00,60.00,Friday
8,8.9375
2,2, 1, 2, 0, 3, 0.00,15.00,Friday
7,8.9
2,2, 1, 2, 0, 3,15.00,30.00,Friday
7,8.9
2,2, 1, 2, 0, 3,30.00,45.00,Friday
7,8.9
2,2, 1, 2, 0, 3,45.00,60.00,Friday
7,8.9
2,2, 1, 2, 0, 3, 0.00,60.00,Friday
8,8.9
2,2, 1, 2, 0, 4, 0.00,15.00,Friday
7,8.9
2,2, 1, 2, 0, 4,15.00,30.00,Friday
7,8.9
2,2, 1, 2, 0, 4,30.00,45.00,Friday
7,8.9
2,2, 1, 2, 0, 4,45.00,60.00,Friday
7,8.9
2,2, 1, 2, 0, 4, 0.00,60.00,Friday
8,8.9
2,2, 1, 2, 0, 5, 0.00,15.00,Friday
7,8.75
2,2, 1, 2, 0, 5,15.00,30.00,Friday
7,8.600000000000002
2,2, 1, 2, 0, 5,30.00,45.00,Friday
7,8.450000000000001
2,2, 1, 2, 0, 5,45.00,60.00,Friday
7,8.3
2,2, 1, 2, 0, 5, 0.00,60.00,Friday
8,8.525000000000003
2,2, 1, 2, 0, 6, 0.00,15.00,Friday
7,8.3
2,2, 1, 2, 0, 6,15.00,30.00,Friday
7,8.3
2,2, 1, 2, 0, 6,30.00,45.00,Friday
7,8.3
2,2, 1, 2, 0, 6,45.00,60.00,Friday
7,8.3
2,2, 1, 2, 0, 6, 0.00,60.00,Friday
8,8.3
2,2, 1, 2, 0, 7, 0.00,15.00,Friday
7,8.3
2,2, 1, 2, 0, 7,15.00,30.00,Friday
7,8.3
2,2, 1, 2, 0, 7,30.00,45.00,Friday
7,8.3
2,2, 1, 2, 0, 7,45.00,60.00,Friday
7,8.3
2,2, 1, 2, 0, 7, 0.00,60.00,Friday
8,8.3
2,2, 1, 2, 0, 8, 0.00,15.00,Friday
7,8.450000000000001
2,2, 1, 2, 0, 8,15.00,30.00,Friday
7,8.600000000000002
2,2, 1, 2, 0, 8,30.00,45.00,Friday
7,8.75
2,2, 1, 2, 0, 8,45.00,60.00,Friday
7,8.9
2,2, 1, 2, 0, 8, 0.00,60.00,Friday
8,8.675
2,2, 1, 2, 0, 9, 0.00,15.00,Friday
7,8.9
2,2, 1, 2, 0, 9,15.00,30.00,Friday
7,8.9
2,2, 1, 2, 0, 9,30.00,45.00,Friday
7,8.9
2,2, 1, 2, 0, 9,45.00,60.00,Friday
7,8.9
2,2, 1, 2, 0, 9, 0.00,60.00,Friday
8,8.9
2,2, 1, 2, 0,10, 0.00,15.00,Friday
7,8.9
2,2, 1, 2, 0,10,15.00,30.00,Friday
7,8.9
2,2, 1, 2, 0,10,30.00,45.00,Friday
7,8.9
2,2, 1, 2, 0,10,45.00,60.00,Friday
7,8.9
2,2, 1, 2, 0,10, 0.00,60.00,Friday
8,8.9
2,2, 1, 2, 0,11, 0.00,15.00,Friday
7,9.025
2,2, 1, 2, 0,11,15.00,30.00,Friday
7,9.15
2,2, 1, 2, 0,11,30.00,45.00,Friday
7,9.275
2,2, 1, 2, 0,11,45.00,60.00,Friday
7,9.4
2,2, 1, 2, 0,11, 0.00,60.00,Friday
8,9.2125
2,2, 1, 2, 0,12, 0.00,15.00,Friday
7,9.4
2,2, 1, 2, 0,12,15.00,30.00,Friday
7,9.4
2,2, 1, 2, 0,12,30.00,45.00,Friday
7,9.4
2,2, 1, 2, 0,12,45.00,60.00,Friday
7,9.4
2,2, 1, 2, 0,12, 0.00,60.00,Friday
8,9.4
2,2, 1, 2, 0,13, 0.00,15.00,Friday
7,9.55
2,2, 1, 2, 0,13,15.00,30.00,Friday
7,9.7
2,2, 1, 2, 0,13,30.00,45.00,Friday
7,9.85
2,2, 1, 2, 0,13,45.00,60.00,Friday
7,10.0
2,2, 1, 2, 0,13, 0.00,60.00,Friday
8,9.775
2,2, 1, 2, 0,14, 0.00,15.00,Friday
7,10.15
2,2, 1, 2, 0,14,15.00,30.00,Friday
7,10.3
2,2, 1, 2, 0,14,30.00,45.00,Friday
7,10.45
2,2, 1, 2, 0,14,45.00,60.00,Friday
7,10.6
2,2, 1, 2, 0,14, 0.00,60.00,Friday
8,10.375
2,2, 1, 2, 0,15, 0.00,15.00,Friday
7,10.725
2,2, 1, 2, 0,15,15.00,30.00,Friday
7,10.85
2,2, 1, 2, 0,15,30.00,45.00,Friday
7,10.975
2,2, 1, 2, 0,15,45.00,60.00,Friday
7,11.1
2,2, 1, 2, 0,15, 0.00,60.00,Friday
8,10.9125
2,2, 1, 2, 0,16, 0.00,15.00,Friday
7,11.25
2,2, 1, 2, 0,16,15.00,30.00,Friday
7,11.399999999999999
2,2, 1, 2, 0,16,30.00,45.00,Friday
7,11.549999999999999
2,2, 1, 2, 0,16,45.00,60.00,Friday
7,11.7
2,2, 1, 2, 0,16, 0.00,60.00,Friday
8,11.474999999999998
2,2, 1, 2, 0,17, 0.00,15.00,Friday
7,11.549999999999999
2,2, 1, 2, 0,17,15.00,30.00,Friday
7,11.399999999999999
2,2, 1, 2, 0,17,30.00,45.00,Friday
7,11.25
2,2, 1, 2, 0,17,45.00,60.00,Friday
7,11.1
2,2, 1, 2, 0,17, 0.00,60.00,Friday
8,11.325
2,2, 1, 2, 0,18, 0.00,15.00,Friday
7,11.1
2,2, 1, 2, 0,18,15.00,30.00,Friday
7,11.1
2,2, 1, 2, 0,18,30.00,45.00,Friday
7,11.1
2,2, 1, 2, 0,18,45.00,60.00,Friday
7,11.1
2,2, 1, 2, 0,18, 0.00,60.00,Friday
8,11.1
2,2, 1, 2, 0,19, 0.00,15.00,Friday
7,10.674999999999999
2,2, 1, 2, 0,19,15.00,30.00,Friday
7,10.25
2,2, 1, 2, 0,19,30.00,45.00,Friday
7,9.825000000000001
2,2, 1, 2, 0,19,45.00,60.00,Friday
7,9.4
2,2, 1, 2, 0,19, 0.00,60.00,Friday
8,10.0375
2,2, 1, 2, 0,20, 0.00,15.00,Friday
7,9.55
2,2, 1, 2, 0,20,15.00,30.00,Friday
7,9.7
2,2, 1, 2, 0,20,30.00,45.00,Friday
7,9.85
2,2, 1, 2, 0,20,45.00,60.00,Friday
7,10.0
2,2, 1, 2, 0,20, 0.00,60.00,Friday
8,9.775
2,2, 1, 2, 0,21, 0.00,15.00,Friday
7,9.725
2,2, 1, 2, 0,21,15.00,30.00,Friday
7,9.45
2,2, 1, 2, 0,21,30.00,45.00,Friday
7,9.175
2,2, 1, 2, 0,21,45.00,60.00,Friday
7,8.9
2,2, 1, 2, 0,21, 0.00,60.00,Friday
8,9.3125
2,2, 1, 2, 0,22, 0.00,15.00,Friday
7,8.475000000000002
2,2, 1, 2, 0,22,15.00,30.00,Friday
7,8.05
2,2, 1, 2, 0,22,30.00,45.00,Friday
7,7.625
2,2, 1, 2, 0,22,45.00,60.00,Friday
7,7.2
2,2, 1, 2, 0,22, 0.00,60.00,Friday
8,7.8375
2,2, 1, 2, 0,23, 0.00,15.00,Friday
7,7.175000000000001
2,2, 1, 2, 0,23,15.00,30.00,Friday
7,7.15
2,2, 1, 2, 0,23,30.00,45.00,Friday
7,7.124999999999999
2,2, 1, 2, 0,23,45.00,60.00,Friday
7,7.1
2,2, 1, 2, 0,23, 0.00,60.00,Friday
8,7.137499999999999
2,2, 1, 2, 0,24, 0.00,15.00,Friday
7,6.725
2,2, 1, 2, 0,24,15.00,30.00,Friday
7,6.35
2,2, 1, 2, 0,24,30.00,45.00,Friday
7,5.975
2,2, 1, 2, 0,24,45.00,60.00,Friday
7,5.6
2,2, 1, 2, 0,24, 0.00,60.00,Friday
8,6.1625
2,3, 1, 3, 0, 1, 0.00,15.00,Saturday
7,5.299999999999999
2,3, 1, 3, 0, 1,15.00,30.00,Saturday
7,5.0
2,3, 1, 3, 0, 1,30.00,45.00,Saturday
7,4.7
2,3, 1, 3, 0, 1,45.00,60.00,Saturday
7,4.4
2,3, 1, 3, 0, 1, 0.00,60.00,Saturday
8,4.85
2,3, 1, 3, 0, 2, 0.00,15.00,Saturday
7,4.125
2,3, 1, 3, 0, 2,15.00,30.00,Saturday
7,3.85
2,3, 1, 3, 0, 2,30.00,45.00,Saturday
7,3.5749999999999999
2,3, 1, 3, 0, 2,45.00,60.00,Saturday
7,3.3
2,3, 1, 3, 0, 2, 0.00,60.00,Saturday
8,3.7124999999999996
2,3, 1, 3, 0, 3, 0.00,15.00,Saturday
7,3.3
2,3, 1, 3, 0, 3,15.00,30.00,Saturday
7,3.3
2,3, 1, 3, 0, 3,30.00,45.00,Saturday
7,3.3
2,3, 1, 3, 0, 3,45.00,60.00,Saturday
7,3.3
2,3, 1, 3, 0, 3, 0.00,60.00,Saturday
8,3.3
2,3, 1, 3, 0, 4, 0.00,15.00,Saturday
7,3.175
2,3, 1, 3, 0, 4,15.00,30.00,Saturday
7,3.05
2,3, 1, 3, 0, 4,30.00,45.00,Saturday
7,2.925
2,3, 1, 3, 0, 4,45.00,60.00,Saturday
7,2.8
2,3, 1, 3, 0, 4, 0.00,60.00,Saturday
8,2.9875
2,3, 1, 3, 0, 5, 0.00,15.00,Saturday
7,2.6499999999999996
2,3, 1, 3, 0, 5,15.00,30.00,Saturday
7,2.5
2,3, 1, 3, 0, 5,30.00,45.00,Saturday
7,2.35
2,3, 1, 3, 0, 5,45.00,60.00,Saturday
7,2.2
2,3, 1, 3, 0, 5, 0.00,60.00,Saturday
8,2.425
2,3, 1, 3, 0, 6, 0.00,15.00,Saturday
7,2.35
2,3, 1, 3, 0, 6,15.00,30.00,Saturday
7,2.5
2,3, 1, 3, 0, 6,30.00,45.00,Saturday
7,2.6499999999999996
2,3, 1, 3, 0, 6,45.00,60.00,Saturday
7,2.8
2,3, 1, 3, 0, 6, 0.00,60.00,Saturday
8,2.5749999999999999
2,3, 1, 3, 0, 7, 0.00,15.00,Saturday
7,2.925
2,3, 1, 3, 0, 7,15.00,30.00,Saturday
7,3.05
2,3, 1, 3, 0, 7,30.00,45.00,Saturday
7,3.175
2,3, 1, 3, 0, 7,45.00,60.00,Saturday
7,3.3
2,3, 1, 3, 0, 7, 0.00,60.00,Saturday
8,3.1125
2,3, 1, 3, 0, 8, 0.00,15.00,Saturday
7,3.0249999999999996
2,3, 1, 3, 0, 8,15.00,30.00,Saturday
7,2.75
2,3, 1, 3, 0, 8,30.00,45.00,Saturday
7,2.475
2,3, 1, 3, 0, 8,45.00,60.00,Saturday
7,2.2
2,3, 1, 3, 0, 8, 0.00,60.00,Saturday
8,2.6125
2,3, 1, 3, 0, 9, 0.00,15.00,Saturday
7,2.2
2,3, 1, 3, 0, 9,15.00,30.00,Saturday
7,2.2
2,3, 1, 3, 0, 9,30.00,45.00,Saturday
7,2.2
2,3, 1, 3, 0, 9,45.00,60.00,Saturday
7,2.2
2,3, 1, 3, 0, 9, 0.00,60.00,Saturday
8,2.2
2,3, 1, 3, 0,10, 0.00,15.00,Saturday
7,2.625
2,3, 1, 3, 0,10,15.00,30.00,Saturday
7,3.05
2,3, 1, 3, 0,10,30.00,45.00,Saturday
7,3.4749999999999998
2,3, 1, 3, 0,10,45.00,60.00,Saturday
7,3.9
2,3, 1, 3, 0,10, 0.00,60.00,Saturday
8,3.2624999999999999
2,3, 1, 3, 0,11, 0.00,15.00,Saturday
7,4.449999999999999
2,3, 1, 3, 0,11,15.00,30.00,Saturday
7,5.0
2,3, 1, 3, 0,11,30.00,45.00,Saturday
7,5.549999999999999
2,3, 1, 3, 0,11,45.00,60.00,Saturday
7,6.1
2,3, 1, 3, 0,11, 0.00,60.00,Saturday
8,5.2749999999999999
2,3, 1, 3, 0,12, 0.00,15.00,Saturday
7,6.374999999999999
2,3, 1, 3, 0,12,15.00,30.00,Saturday
7,6.65
2,3, 1, 3, 0,12,30.00,45.00,Saturday
7,6.925000000000001
2,3, 1, 3, 0,12,45.00,60.00,Saturday
7,7.2
2,3, 1, 3, 0,12, 0.00,60.00,Saturday
8,6.7875
2,3, 1, 3, 0,13, 0.00,15.00,Saturday
7,7.3500000000000009
2,3, 1, 3, 0,13,15.00,30.00,Saturday
7,7.5
2,3, 1, 3, 0,13,30.00,45.00,Saturday
7,7.6499999999999999
2,3, 1, 3, 0,13,45.00,60.00,Saturday
7,7.8
2,3, 1, 3, 0,13, 0.00,60.00,Saturday
8,7.575
2,3, 1, 3, 0,14, 0.00,15.00,Saturday
7,8.2
2,3, 1, 3, 0,14,15.00,30.00,Saturday
7,8.6
2,3, 1, 3, 0,14,30.00,45.00,Saturday
7,9.0
2,3, 1, 3, 0,14,45.00,60.00,Saturday
7,9.4
2,3, 1, 3, 0,14, 0.00,60.00,Saturday
8,8.799999999999999
2,3, 1, 3, 0,15, 0.00,15.00,Saturday
7,9.55
2,3, 1, 3, 0,15,15.00,30.00,Saturday
7,9.7
2,3, 1, 3, 0,15,30.00,45.00,Saturday
7,9.85
2,3, 1, 3, 0,15,45.00,60.00,Saturday
7,10.0
2,3, 1, 3, 0,15, 0.00,60.00,Saturday
8,9.775
2,3, 1, 3, 0,16, 0.00,15.00,Saturday
7,10.0
2,3, 1, 3, 0,16,15.00,30.00,Saturday
7,10.0
2,3, 1, 3, 0,16,30.00,45.00,Saturday
7,10.0
2,3, 1, 3, 0,16,45.00,60.00,Saturday
7,10.0
2,3, 1, 3, 0,16, 0.00,60.00,Saturday
8,10.0
2,3, 1, 3, 0,17, 0.00,15.00,Saturday
7,9.85
2,3, 1, 3, 0,17,15.00,30.00,Saturday
7,9.7
2,3, 1, 3, 0,17,30.00,45.00,Saturday
7,9.55
2,3, 1, 3, 0,17,45.00,60.00,Saturday
7,9.4
2,3, 1, 3, 0,17, 0.00,60.00,Saturday
8,9.625
2,3, 1, 3, 0,18, 0.00,15.00,Saturday
7,8.850000000000002
2,3, 1, 3, 0,18,15.00,30.00,Saturday
7,8.3
2,3, 1, 3, 0,18,30.00,45.00,Saturday
7,7.75
2,3, 1, 3, 0,18,45.00,60.00,Saturday
7,7.2
2,3, 1, 3, 0,18, 0.00,60.00,Saturday
8,8.025
2,3, 1, 3, 0,19, 0.00,15.00,Saturday
7,6.925000000000001
2,3, 1, 3, 0,19,15.00,30.00,Saturday
7,6.65
2,3, 1, 3, 0,19,30.00,45.00,Saturday
7,6.374999999999999
2,3, 1, 3, 0,19,45.00,60.00,Saturday
7,6.1
2,3, 1, 3, 0,19, 0.00,60.00,Saturday
8,6.512499999999999
2,3, 1, 3, 0,20, 0.00,15.00,Saturday
7,5.975
2,3, 1, 3, 0,20,15.00,30.00,Saturday
7,5.85
2,3, 1, 3, 0,20,30.00,45.00,Saturday
7,5.725
2,3, 1, 3, 0,20,45.00,60.00,Saturday
7,5.6
2,3, 1, 3, 0,20, 0.00,60.00,Saturday
8,5.7875
2,3, 1, 3, 0,21, 0.00,15.00,Saturday
7,5.6
2,3, 1, 3, 0,21,15.00,30.00,Saturday
7,5.6
2,3, 1, 3, 0,21,30.00,45.00,Saturday
7,5.6
2,3, 1, 3, 0,21,45.00,60.00,Saturday
7,5.6
2,3, 1, 3, 0,21, 0.00,60.00,Saturday
8,5.6
2,3, 1, 3, 0,22, 0.00,15.00,Saturday
7,5.299999999999999
2,3, 1, 3, 0,22,15.00,30.00,Saturday
7,5.0
2,3, 1, 3, 0,22,30.00,45.00,Saturday
7,4.7
2,3, 1, 3, 0,22,45.00,60.00,Saturday
7,4.4
2,3, 1, 3, 0,22, 0.00,60.00,Saturday
8,4.85
2,3, 1, 3, 0,23, 0.00,15.00,Saturday
7,4.3500000000000009
2,3, 1, 3, 0,23,15.00,30.00,Saturday
7,4.300000000000001
2,3, 1, 3, 0,23,30.00,45.00,Saturday
7,4.25
2,3, 1, 3, 0,23,45.00,60.00,Saturday
7,4.2
2,3, 1, 3, 0,23, 0.00,60.00,Saturday
8,4.275
2,3, 1, 3, 0,24, 0.00,15.00,Saturday
7,3.9750000000000007
2,3, 1, 3, 0,24,15.00,30.00,Saturday
7,3.75
2,3, 1, 3, 0,24,30.00,45.00,Saturday
7,3.5249999999999996
2,3, 1, 3, 0,24,45.00,60.00,Saturday
7,3.3
2,3, 1, 3, 0,24, 0.00,60.00,Saturday
8,3.6375
2,4, 1, 4, 0, 1, 0.00,15.00,Sunday
7,3.0249999999999996
2,4, 1, 4, 0, 1,15.00,30.00,Sunday
7,2.75
2,4, 1, 4, 0, 1,30.00,45.00,Sunday
7,2.475
2,4, 1, 4, 0, 1,45.00,60.00,Sunday
7,2.2
2,4, 1, 4, 0, 1, 0.00,60.00,Sunday
8,2.6125
2,4, 1, 4, 0, 2, 0.00,15.00,Sunday
7,2.075
2,4, 1, 4, 0, 2,15.00,30.00,Sunday
7,1.9500000000000002
2,4, 1, 4, 0, 2,30.00,45.00,Sunday
7,1.825
2,4, 1, 4, 0, 2,45.00,60.00,Sunday
7,1.7
2,4, 1, 4, 0, 2, 0.00,60.00,Sunday
8,1.8875000000000002
2,4, 1, 4, 0, 3, 0.00,15.00,Sunday
7,1.4249999999999999
2,4, 1, 4, 0, 3,15.00,30.00,Sunday
7,1.15
2,4, 1, 4, 0, 3,30.00,45.00,Sunday
7,0.875
2,4, 1, 4, 0, 3,45.00,60.00,Sunday
7,0.6
2,4, 1, 4, 0, 3, 0.00,60.00,Sunday
8,1.0125
2,4, 1, 4, 0, 4, 0.00,15.00,Sunday
7,0.6
2,4, 1, 4, 0, 4,15.00,30.00,Sunday
7,0.6
2,4, 1, 4, 0, 4,30.00,45.00,Sunday
7,0.6
2,4, 1, 4, 0, 4,45.00,60.00,Sunday
7,0.6
2,4, 1, 4, 0, 4, 0.00,60.00,Sunday
8,0.6
2,4, 1, 4, 0, 5, 0.00,15.00,Sunday
7,0.44999999999999998
2,4, 1, 4, 0, 5,15.00,30.00,Sunday
7,0.3
2,4, 1, 4, 0, 5,30.00,45.00,Sunday
7,0.15
2,4, 1, 4, 0, 5,45.00,60.00,Sunday
7,0.0
2,4, 1, 4, 0, 5, 0.00,60.00,Sunday
8,0.225
2,4, 1, 4, 0, 6, 0.00,15.00,Sunday
7,0.0
2,4, 1, 4, 0, 6,15.00,30.00,Sunday
7,0.0
2,4, 1, 4, 0, 6,30.00,45.00,Sunday
7,0.0
2,4, 1, 4, 0, 6,45.00,60.00,Sunday
7,0.0
2,4, 1, 4, 0, 6, 0.00,60.00,Sunday
8,0.0
2,4, 1, 4, 0, 7, 0.00,15.00,Sunday
7,0.0
2,4, 1, 4, 0, 7,15.00,30.00,Sunday
7,0.0
2,4, 1, 4, 0, 7,30.00,45.00,Sunday
7,0.0
2,4, 1, 4, 0, 7,45.00,60.00,Sunday
7,0.0
2,4, 1, 4, 0, 7, 0.00,60.00,Sunday
8,0.0
2,4, 1, 4, 0, 8, 0.00,15.00,Sunday
7,-0.15
2,4, 1, 4, 0, 8,15.00,30.00,Sunday
7,-0.3
2,4, 1, 4, 0, 8,30.00,45.00,Sunday
7,-0.44999999999999998
2,4, 1, 4, 0, 8,45.00,60.00,Sunday
7,-0.6
2,4, 1, 4, 0, 8, 0.00,60.00,Sunday
8,-0.375
2,4, 1, 4, 0, 9, 0.00,15.00,Sunday
7,-0.6
2,4, 1, 4, 0, 9,15.00,30.00,Sunday
7,-0.6
2,4, 1, 4, 0, 9,30.00,45.00,Sunday
7,-0.6
2,4, 1, 4, 0, 9,45.00,60.00,Sunday
7,-0.6
2,4, 1, 4, 0, 9, 0.00,60.00,Sunday
8,-0.6
2,4, 1, 4, 0,10, 0.00,15.00,Sunday
7,0.10000000000000009
2,4, 1, 4, 0,10,15.00,30.00,Sunday
7,0.8
2,4, 1, 4, 0,10,30.00,45.00,Sunday
7,1.5000000000000003
2,4, 1, 4, 0,10,45.00,60.00,Sunday
7,2.2
2,4, 1, 4, 0,10, 0.00,60.00,Sunday
8,1.1500000000000002
2,4, 1, 4, 0,11, 0.00,15.00,Sunday
7,2.9000000000000005
2,4, 1, 4, 0,11,15.00,30.00,Sunday
7,3.6
2,4, 1, 4, 0,11,30.00,45.00,Sunday
7,4.3
2,4, 1, 4, 0,11,45.00,60.00,Sunday
7,5.0
2,4, 1, 4, 0,11, 0.00,60.00,Sunday
8,3.95
2,4, 1, 4, 0,12, 0.00,15.00,Sunday
7,5.15
2,4, 1, 4, 0,12,15.00,30.00,Sunday
7,5.3
2,4, 1, 4, 0,12,30.00,45.00,Sunday
7,5.449999999999999
2,4, 1, 4, 0,12,45.00,60.00,Sunday
7,5.6
2,4, 1, 4, 0,12, 0.00,60.00,Sunday
8,5.375
2,4, 1, 4, 0,13, 0.00,15.00,Sunday
7,5.874999999999999
2,4, 1, 4, 0,13,15.00,30.00,Sunday
7,6.15
2,4, 1, 4, 0,13,30.00,45.00,Sunday
7,6.425000000000001
2,4, 1, 4, 0,13,45.00,60.00,Sunday
7,6.7
2,4, 1, 4, 0,13, 0.00,60.00,Sunday
8,6.2875
2,4, 1, 4, 0,14, 0.00,15.00,Sunday
7,7.1000000000000009
2,4, 1, 4, 0,14,15.00,30.00,Sunday
7,7.5
2,4, 1, 4, 0,14,30.00,45.00,Sunday
7,7.9
2,4, 1, 4, 0,14,45.00,60.00,Sunday
7,8.3
2,4, 1, 4, 0,14, 0.00,60.00,Sunday
8,7.7
2,4, 1, 4, 0,15, 0.00,15.00,Sunday
7,8.450000000000001
2,4, 1, 4, 0,15,15.00,30.00,Sunday
7,8.600000000000002
2,4, 1, 4, 0,15,30.00,45.00,Sunday
7,8.75
2,4, 1, 4, 0,15,45.00,60.00,Sunday
7,8.9
2,4, 1, 4, 0,15, 0.00,60.00,Sunday
8,8.675
2,4, 1, 4, 0,16, 0.00,15.00,Sunday
7,9.025
2,4, 1, 4, 0,16,15.00,30.00,Sunday
7,9.15
2,4, 1, 4, 0,16,30.00,45.00,Sunday
7,9.275
2,4, 1, 4, 0,16,45.00,60.00,Sunday
7,9.4
2,4, 1, 4, 0,16, 0.00,60.00,Sunday
8,9.2125
2,4, 1, 4, 0,17, 0.00,15.00,Sunday
7,9.4
2,4, 1, 4, 0,17,15.00,30.00,Sunday
7,9.4
2,4, 1, 4, 0,17,30.00,45.00,Sunday
7,9.4
2,4, 1, 4, 0,17,45.00,60.00,Sunday
7,9.4
2,4, 1, 4, 0,17, 0.00,60.00,Sunday
8,9.4
2,4, 1, 4, 0,18, 0.00,15.00,Sunday
7,9.125
2,4, 1, 4, 0,18,15.00,30.00,Sunday
7,8.850000000000002
2,4, 1, 4, 0,18,30.00,45.00,Sunday
7,8.575000000000001
2,4, 1, 4, 0,18,45.00,60.00,Sunday
7,8.3
2,4, 1, 4, 0,18, 0.00,60.00,Sunday
8,8.712500000000003
2,4, 1, 4, 0,19, 0.00,15.00,Sunday
7,7.9
2,4, 1, 4, 0,19,15.00,30.00,Sunday
7,7.5
2,4, 1, 4, 0,19,30.00,45.00,Sunday
7,7.1000000000000009
2,4, 1, 4, 0,19,45.00,60.00,Sunday
7,6.7
2,4, 1, 4, 0,19, 0.00,60.00,Sunday
8,7.3
2,4, 1, 4, 0,20, 0.00,15.00,Sunday
7,6.7
2,4, 1, 4, 0,20,15.00,30.00,Sunday
7,6.7
2,4, 1, 4, 0,20,30.00,45.00,Sunday
7,6.7
2,4, 1, 4, 0,20,45.00,60.00,Sunday
7,6.7
2,4, 1, 4, 0,20, 0.00,60.00,Sunday
8,6.7
2,4, 1, 4, 0,21, 0.00,15.00,Sunday
7,6.425000000000001
2,4, 1, 4, 0,21,15.00,30.00,Sunday
7,6.15
2,4, 1, 4, 0,21,30.00,45.00,Sunday
7,5.874999999999999
2,4, 1, 4, 0,21,45.00,60.00,Sunday
7,5.6
2,4, 1, 4, 0,21, 0.00,60.00,Sunday
8,6.012499999999999
2,4, 1, 4, 0,22, 0.00,15.00,Sunday
7,5.449999999999999
2,4, 1, 4, 0,22,15.00,30.00,Sunday
7,5.3
2,4, 1, 4, 0,22,30.00,45.00,Sunday
7,5.15
2,4, 1, 4, 0,22,45.00,60.00,Sunday
7,5.0
2,4, 1, 4, 0,22, 0.00,60.00,Sunday
8,5.225
2,4, 1, 4, 0,23, 0.00,15.00,Sunday
7,4.875
2,4, 1, 4, 0,23,15.00,30.00,Sunday
7,4.75
2,4, 1, 4, 0,23,30.00,45.00,Sunday
7,4.625
2,4, 1, 4, 0,23,45.00,60.00,Sunday
7,4.5
2,4, 1, 4, 0,23, 0.00,60.00,Sunday
8,4.6875
2,4, 1, 4, 0,24, 0.00,15.00,Sunday
7,4.35
2,4, 1, 4, 0,24,15.00,30.00,Sunday
7,4.2
2,4, 1, 4, 0,24,30.00,45.00,Sunday
7,4.05
2,4, 1, 4, 0,24,45.00,60.00,Sunday
7,3.9
2,4, 1, 4, 0,24, 0.00,60.00,Sunday
8,4.125
2,5, 1, 5, 0, 1, 0.00,15.00,Monday
7,3.4749999999999998
2,5, 1, 5, 0, 1,15.00,30.00,Monday
7,3.05
2,5, 1, 5, 0, 1,30.00,45.00,Monday
7,2.625
2,5, 1, 5, 0, 1,45.00,60.00,Monday
7,2.2
2,5, 1, 5, 0, 1, 0.00,60.00,Monday
8,2.8374999999999996
2,5, 1, 5, 0, 2, 0.00,15.00,Monday
7,1.9250000000000003
2,5, 1, 5, 0, 2,15.00,30.00,Monday
7,1.6500000000000002
2,5, 1, 5, 0, 2,30.00,45.00,Monday
7,1.375
2,5, 1, 5, 0, 2,45.00,60.00,Monday
7,1.1
2,5, 1, 5, 0, 2, 0.00,60.00,Monday
8,1.5125000000000002
2,5, 1, 5, 0, 3, 0.00,15.00,Monday
7,1.25
2,5, 1, 5, 0, 3,15.00,30.00,Monday
7,1.4
2,5, 1, 5, 0, 3,30.00,45.00,Monday
7,1.5499999999999999
2,5, 1, 5, 0, 3,45.00,60.00,Monday
7,1.7
2,5, 1, 5, 0, 3, 0.00,60.00,Monday
8,1.4749999999999999
2,5, 1, 5, 0, 4, 0.00,15.00,Monday
7,1.825
2,5, 1, 5, 0, 4,15.00,30.00,Monday
7,1.9500000000000002
2,5, 1, 5, 0, 4,30.00,45.00,Monday
7,2.075
2,5, 1, 5, 0, 4,45.00,60.00,Monday
7,2.2
2,5, 1, 5, 0, 4, 0.00,60.00,Monday
8,2.0125
2,5, 1, 5, 0, 5, 0.00,15.00,Monday
7,2.075
2,5, 1, 5, 0, 5,15.00,30.00,Monday
7,1.9500000000000002
2,5, 1, 5, 0, 5,30.00,45.00,Monday
7,1.825
2,5, 1, 5, 0, 5,45.00,60.00,Monday
7,1.7
2,5, 1, 5, 0, 5, 0.00,60.00,Monday
8,1.8875000000000002
2,5, 1, 5, 0, 6, 0.00,15.00,Monday
7,1.4249999999999999
2,5, 1, 5, 0, 6,15.00,30.00,Monday
7,1.15
2,5, 1, 5, 0, 6,30.00,45.00,Monday
7,0.875
2,5, 1, 5, 0, 6,45.00,60.00,Monday
7,0.6
2,5, 1, 5, 0, 6, 0.00,60.00,Monday
8,1.0125
2,5, 1, 5, 0, 7, 0.00,15.00,Monday
7,0.6
2,5, 1, 5, 0, 7,15.00,30.00,Monday
7,0.6
2,5, 1, 5, 0, 7,30.00,45.00,Monday
7,0.6
2,5, 1, 5, 0, 7,45.00,60.00,Monday
7,0.6
2,5, 1, 5, 0, 7, 0.00,60.00,Monday
8,0.6
2,5, 1, 5, 0, 8, 0.00,15.00,Monday
7,0.6
2,5, 1, 5, 0, 8,15.00,30.00,Monday
7,0.6
2,5, 1, 5, 0, 8,30.00,45.00,Monday
7,0.6
2,5, 1, 5, 0, 8,45.00,60.00,Monday
7,0.6
2,5, 1, 5, 0, 8, 0.00,60.00,Monday
8,0.6
2,5, 1, 5, 0, 9, 0.00,15.00,Monday
7,0.725
2,5, 1, 5, 0, 9,15.00,30.00,Monday
7,0.8500000000000001
2,5, 1, 5, 0, 9,30.00,45.00,Monday
7,0.9750000000000001
2,5, 1, 5, 0, 9,45.00,60.00,Monday
7,1.1
2,5, 1, 5, 0, 9, 0.00,60.00,Monday
8,0.9125000000000001
2,5, 1, 5, 0,10, 0.00,15.00,Monday
7,1.65
2,5, 1, 5, 0,10,15.00,30.00,Monday
7,2.2
2,5, 1, 5, 0,10,30.00,45.00,Monday
7,2.7499999999999997
2,5, 1, 5, 0,10,45.00,60.00,Monday
7,3.3
2,5, 1, 5, 0,10, 0.00,60.00,Monday
8,2.4749999999999998
2,5, 1, 5, 0,11, 0.00,15.00,Monday
7,3.9999999999999997
2,5, 1, 5, 0,11,15.00,30.00,Monday
7,4.699999999999999
2,5, 1, 5, 0,11,30.00,45.00,Monday
7,5.3999999999999999
2,5, 1, 5, 0,11,45.00,60.00,Monday
7,6.1
2,5, 1, 5, 0,11, 0.00,60.00,Monday
8,5.049999999999999
2,5, 1, 5, 0,12, 0.00,15.00,Monday
7,6.374999999999999
2,5, 1, 5, 0,12,15.00,30.00,Monday
7,6.65
2,5, 1, 5, 0,12,30.00,45.00,Monday
7,6.925000000000001
2,5, 1, 5, 0,12,45.00,60.00,Monday
7,7.2
2,5, 1, 5, 0,12, 0.00,60.00,Monday
8,6.7875
2,5, 1, 5, 0,13, 0.00,15.00,Monday
7,7.625
2,5, 1, 5, 0,13,15.00,30.00,Monday
7,8.05
2,5, 1, 5, 0,13,30.00,45.00,Monday
7,8.475000000000002
2,5, 1, 5, 0,13,45.00,60.00,Monday
7,8.9
2,5, 1, 5, 0,13, 0.00,60.00,Monday
8,8.262500000000001
2,5, 1, 5, 0,14, 0.00,15.00,Monday
7,9.175
2,5, 1, 5, 0,14,15.00,30.00,Monday
7,9.45
2,5, 1, 5, 0,14,30.00,45.00,Monday
7,9.725
2,5, 1, 5, 0,14,45.00,60.00,Monday
7,10.0
2,5, 1, 5, 0,14, 0.00,60.00,Monday
8,9.5875
2,5, 1, 5, 0,15, 0.00,15.00,Monday
7,10.15
2,5, 1, 5, 0,15,15.00,30.00,Monday
7,10.3
2,5, 1, 5, 0,15,30.00,45.00,Monday
7,10.45
2,5, 1, 5, 0,15,45.00,60.00,Monday
7,10.6
2,5, 1, 5, 0,15, 0.00,60.00,Monday
8,10.375
2,5, 1, 5, 0,16, 0.00,15.00,Monday
7,10.725
2,5, 1, 5, 0,16,15.00,30.00,Monday
7,10.85
2,5, 1, 5, 0,16,30.00,45.00,Monday
7,10.975
2,5, 1, 5, 0,16,45.00,60.00,Monday
7,11.1
2,5, 1, 5, 0,16, 0.00,60.00,Monday
8,10.9125
2,5, 1, 5, 0,17, 0.00,15.00,Monday
7,11.1
2,5, 1, 5, 0,17,15.00,30.00,Monday
7,11.1
2,5, 1, 5, 0,17,30.00,45.00,Monday
7,11.1
2,5, 1, 5, 0,17,45.00,60.00,Monday
7,11.1
2,5, 1, 5, 0,17, 0.00,60.00,Monday
8,11.1
2,5, 1, 5, 0,18, 0.00,15.00,Monday
7,10.674999999999999
2,5, 1, 5, 0,18,15.00,30.00,Monday
7,10.25
2,5, 1, 5, 0,18,30.00,45.00,Monday
7,9.825000000000001
2,5, 1, 5, 0,18,45.00,60.00,Monday
7,9.4
2,5, 1, 5, 0,18, 0.00,60.00,Monday
8,10.0375
2,5, 1, 5, 0,19, 0.00,15.00,Monday
7,9.125
2,5, 1, 5, 0,19,15.00,30.00,Monday
7,8.850000000000002
2,5, 1, 5, 0,19,30.00,45.00,Monday
7,8.575000000000001
2,5, 1, 5, 0,19,45.00,60.00,Monday
7,8.3
2,5, 1, 5, 0,19, 0.00,60.00,Monday
8,8.712500000000003
2,5, 1, 5, 0,20, 0.00,15.00,Monday
7,7.9
2,5, 1, 5, 0,20,15.00,30.00,Monday
7,7.5
2,5, 1, 5, 0,20,30.00,45.00,Monday
7,7.1000000000000009
2,5, 1, 5, 0,20,45.00,60.00,Monday
7,6.7
2,5, 1, 5, 0,20, 0.00,60.00,Monday
8,7.3
2,5, 1, 5, 0,21, 0.00,15.00,Monday
7,6.550000000000001
2,5, 1, 5, 0,21,15.00,30.00,Monday
7,6.4
2,5, 1, 5, 0,21,30.00,45.00,Monday
7,6.249999999999999
2,5, 1, 5, 0,21,45.00,60.00,Monday
7,6.1
2,5, 1, 5, 0,21, 0.00,60.00,Monday
8,6.324999999999999
2,5, 1, 5, 0,22, 0.00,15.00,Monday
7,5.824999999999999
2,5, 1, 5, 0,22,15.00,30.00,Monday
7,5.55
2,5, 1, 5, 0,22,30.00,45.00,Monday
7,5.275
2,5, 1, 5, 0,22,45.00,60.00,Monday
7,5.0
2,5, 1, 5, 0,22, 0.00,60.00,Monday
8,5.4125
2,5, 1, 5, 0,23, 0.00,15.00,Monday
7,4.875
2,5, 1, 5, 0,23,15.00,30.00,Monday
7,4.75
2,5, 1, 5, 0,23,30.00,45.00,Monday
7,4.625
2,5, 1, 5, 0,23,45.00,60.00,Monday
7,4.5
2,5, 1, 5, 0,23, 0.00,60.00,Monday
8,4.6875
2,5, 1, 5, 0,24, 0.00,15.00,Monday
7,4.075
2,5, 1, 5, 0,24,15.00,30.00,Monday
7,3.65
2,5, 1, 5, 0,24,30.00,45.00,Monday
7,3.2249999999999998
2,5, 1, 5, 0,24,45.00,60.00,Monday
7,2.8
2,5, 1, 5, 0,24, 0.00,60.00,Monday
8,3.4375
2,6, 1, 6, 0, 1, 0.00,15.00,Tuesday
7,2.6499999999999996
2,6, 1, 6, 0, 1,15.00,30.00,Tuesday
7,2.5
2,6, 1, 6, 0, 1,30.00,45.00,Tuesday
7,2.35
2,6, 1, 6, 0, 1,45.00,60.00,Tuesday
7,2.2
2,6, 1, 6, 0, 1, 0.00,60.00,Tuesday
8,2.425
2,6, 1, 6, 0, 2, 0.00,15.00,Tuesday
7,2.075
2,6, 1, 6, 0, 2,15.00,30.00,Tuesday
7,1.9500000000000002
2,6, 1, 6, 0, 2,30.00,45.00,Tuesday
7,1.825
2,6, 1, 6, 0, 2,45.00,60.00,Tuesday
7,1.7
2,6, 1, 6, 0, 2, 0.00,60.00,Tuesday
8,1.8875000000000002
2,6, 1, 6, 0, 3, 0.00,15.00,Tuesday
7,1.9749999999999999
2,6, 1, 6, 0, 3,15.00,30.00,Tuesday
7,2.25
2,6, 1, 6, 0, 3,30.00,45.00,Tuesday
7,2.5249999999999996
2,6, 1, 6, 0, 3,45.00,60.00,Tuesday
7,2.8
2,6, 1, 6, 0, 3, 0.00,60.00,Tuesday
8,2.3874999999999999
2,6, 1, 6, 0, 4, 0.00,15.00,Tuesday
7,2.6499999999999996
2,6, 1, 6, 0, 4,15.00,30.00,Tuesday
7,2.5
2,6, 1, 6, 0, 4,30.00,45.00,Tuesday
7,2.35
2,6, 1, 6, 0, 4,45.00,60.00,Tuesday
7,2.2
2,6, 1, 6, 0, 4, 0.00,60.00,Tuesday
8,2.425
2,6, 1, 6, 0, 5, 0.00,15.00,Tuesday
7,2.2
2,6, 1, 6, 0, 5,15.00,30.00,Tuesday
7,2.2
2,6, 1, 6, 0, 5,30.00,45.00,Tuesday
7,2.2
2,6, 1, 6, 0, 5,45.00,60.00,Tuesday
7,2.2
2,6, 1, 6, 0, 5, 0.00,60.00,Tuesday
8,2.2
2,6, 1, 6, 0, 6, 0.00,15.00,Tuesday
7,2.35
2,6, 1, 6, 0, 6,15.00,30.00,Tuesday
7,2.5
2,6, 1, 6, 0, 6,30.00,45.00,Tuesday
7,2.6499999999999996
2,6, 1, 6, 0, 6,45.00,60.00,Tuesday
7,2.8
2,6, 1, 6, 0, 6, 0.00,60.00,Tuesday
8,2.5749999999999999
2,6, 1, 6, 0, 7, 0.00,15.00,Tuesday
7,2.8
2,6, 1, 6, 0, 7,15.00,30.00,Tuesday
7,2.8
2,6, 1, 6, 0, 7,30.00,45.00,Tuesday
7,2.8
2,6, 1, 6, 0, 7,45.00,60.00,Tuesday
7,2.8
2,6, 1, 6, 0, 7, 0.00,60.00,Tuesday
8,2.8
2,6, 1, 6, 0, 8, 0.00,15.00,Tuesday
7,2.925
2,6, 1, 6, 0, 8,15.00,30.00,Tuesday
7,3.05
2,6, 1, 6, 0, 8,30.00,45.00,Tuesday
7,3.175
2,6, 1, 6, 0, 8,45.00,60.00,Tuesday
7,3.3
2,6, 1, 6, 0, 8, 0.00,60.00,Tuesday
8,3.1125
2,6, 1, 6, 0, 9, 0.00,15.00,Tuesday
7,3.4499999999999999
2,6, 1, 6, 0, 9,15.00,30.00,Tuesday
7,3.5999999999999998
2,6, 1, 6, 0, 9,30.00,45.00,Tuesday
7,3.75
2,6, 1, 6, 0, 9,45.00,60.00,Tuesday
7,3.9