Program Version,EnergyPlus, Version 9.0.1-bb7ca4f0da, YMD=2019.12.17 18:14
1,5,Environment Title[],Latitude[deg],Longitude[deg],Time Zone[],Elevation[m]
2,8,Day of Simulation[],Month[],Day of Month[],DST Indicator[1=yes 0=no],Hour[],StartMinute[],EndMinute[],DayType
3,5,Cumulative Day of Simulation[],Month[],Day of Month[],DST Indicator[1=yes 0=no],DayType  ! When Daily Meters Requested
4,2,Cumulative Days of Simulation[],Month[]  ! When Monthly Meters Requested
5,1,Cumulative Days of Simulation[] ! When Run Period Meters Requested
6,1,Calendar Year of Simulation[] ! When Annual Meters Requested
2366,1,WaterSystems:Gas [J] !Hourly
71,1,ComplianceLtg:InteriorLights:Electricity [J] !Hourly
2228,1,WaterSystems:Electricity [J] !Hourly
11,1,Electricity:Facility [J] !Hourly
47,1,InteriorLights:Electricity [J] !Hourly
1533,1,InteriorEquipment:Gas [J] !Hourly
993,1,InteriorEquipment:Electricity [J] !Hourly
4114,1,Fans:Electricity [J] !Hourly
4473,1,Pumps:Electricity [J] !Hourly
4210,1,Heating:Electricity [J] !Hourly
4348,1,Cooling:Electricity [J] !Hourly
1497,1,Gas:Facility [J] !Hourly
4236,1,Heating:Gas [J] !Hourly
1017,1,Receptacle:InteriorEquipment:Electricity [J] !Hourly
1557,1,Receptacle:InteriorEquipment:Gas [J] !Hourly
346,1,NonComplianceLtg:InteriorLights:Electricity [J] !Hourly
4126,1,General:Fans:Electricity [J] !Hourly
4162,1,ProcessMotors:Fans:Electricity [J] !Hourly
End of Data Dictionary
1,FRESNO_723890_CZ2010,  36.78,-119.72,  -8.00, 102.00
2,1, 1, 1, 0, 1, 0.00,60.00,Holiday
11,66342147.0493177
47,24156278.99999996
71,4835078.999999999
346,19321199.999999968
993,18722069.99999997
1017,18722069.99999997
1497,1043185.0765203257
1533,0.0
1557,0.0
2228,806091.6039073619
2366,1043185.0765203257
4114,22657706.445410395
4126,8458341.339612136
4162,14199365.105798258
4210,0.0
4236,0.0
4348,0.0
4473,0.0
2,1, 1, 1, 0, 2, 0.00,60.00,Holiday
11,67148044.35320765
47,24156278.99999996
71,4835078.999999999
346,19321199.999999968
993,18722069.99999997
1017,18722069.99999997
1497,1043174.1588051543
1533,0.0
1557,0.0
2228,1611988.9077973183
2366,1043174.1588051543
4114,22657706.445410395
4126,8458341.339612136
4162,14199365.105798258
4210,0.0
4236,0.0
4348,0.0
4473,0.0
2,1, 1, 1, 0, 3, 0.00,60.00,Holiday
11,68985289.13476669
47,24156278.99999996
71,4835078.999999999
346,19321199.999999968
993,18722069.99999997
1017,18722069.99999997
1497,1509914.5198227198
1533,0.0
1557,0.0
2228,1611778.9924058642
2366,1304006.443268303
4114,24445347.38055133
4126,10245982.274753076
4162,14199365.105798258
4210,36.865870278082407
4236,205908.07655441669
4348,0.0
4473,49776.89593926227
2,1, 1, 1, 0, 4, 0.00,60.00,Holiday
11,71046415.53820956
47,24156278.99999996
71,4835078.999999999
346,19321199.999999968
993,18722069.99999997
1017,18722069.99999997
1497,2174069.9974403616
1533,0.0
1557,0.0
2228,1598490.9348529508
2366,1037717.1630461653
4114,26469899.50668272
4126,12255312.363479786
4162,14199365.105798258
4210,141.8401411232398
4236,1136352.834394196
4348,0.0
4473,99534.25653281983
2,1, 1, 1, 0, 5, 0.00,60.00,Holiday
11,70276879.44485173
47,24156278.99999996
71,4835078.999999999
346,19321199.999999968
993,18722069.99999997
1017,18722069.99999997
1497,3643203.088670789
1533,0.0
1557,0.0
2228,799294.4801356123
2366,1037964.4281492683
4114,26499454.715217405
4126,12255312.363479786
4162,14199365.105798258
4210,285.20197297307745
4236,2605238.6605215209
4348,0.0
4473,99496.04752577804
2,1, 1, 1, 0, 6, 0.00,60.00,Holiday
11,142133645.30139674
47,52754678.99999992
71,4835078.999999999
346,47919599.99999992
993,47320469.999999929
1017,47320469.999999929
1497,4203037.164364392
1533,0.0
1557,0.0
2228,1598575.6757733413
2366,1305922.243426608
4114,29444465.546308057
4126,15231888.038587023
4162,14199365.105798258
4210,10916001.79518151
4236,2897114.920937785
4348,0.0
4473,99453.28413385086
2,1, 1, 1, 0, 7, 0.00,60.00,Holiday
11,196810536.71942894
47,74203478.99999988
71,4835078.999999999
346,69368399.9999999
993,68769269.9999999
1017,68769269.9999999
1497,323002752.7384558
1533,28597212.921243654
1557,28597212.921243654
2228,1080275.0299757175
2366,1043194.6679394615
4114,42334457.73751532
4126,15362186.396287688
4162,14199365.105798258
4210,10304438.241570322
4236,293362345.1492726
4348,0.0
4473,118616.71036774245
2,1, 1, 1, 0, 8, 0.00,60.00,Holiday
11,189762951.15410999
47,74199275.8733456
71,4830875.873345729
346,69368399.9999999
993,68769269.9999999
1017,68769269.9999999
1497,167612597.91216056
1533,28597212.921243654
1557,28597212.921243654
2228,2199166.5743474878
2366,1323822.6163398177
4114,34355911.10765961
4126,14287472.942453269
4162,14199365.105798258
4210,10139957.776979134
4236,137691562.3745771
4348,0.0
4473,99369.82177826371
2,1, 1, 1, 0, 9, 0.00,60.00,Holiday
11,210465138.3895976
47,77856131.73071948
71,8487731.7307196
346,69368399.9999999
993,72641339.99999988
1017,72641339.99999988
1497,513786711.17456349
1533,0.0
1557,0.0
2228,2524014.3871159779
2366,1337700.5298291392
4114,45334568.93869256
4126,25502793.774412965
4162,14199365.105798258
4210,11040183.994465702
4236,512449010.6447343
4348,0.0
4473,1068899.3386039497
2,1, 1, 1, 0,10, 0.00,60.00,Holiday
11,201718271.28645505
47,77815142.59768412
71,8446742.59768425
346,69368399.9999999
993,72641339.99999988
1017,72641339.99999988
1497,441388405.49399229
1533,0.0
1557,0.0
2228,2568549.901803064
2366,1351477.6695963038
4114,36800251.728588979
4126,16643120.339897147
4162,14199365.105798258
4210,11551936.452543453
4236,440036927.82439598
4348,0.0
4473,341050.60583555596
2,1, 1, 1, 0,11, 0.00,60.00,Holiday
11,208271477.58723677
47,78140587.82625164
71,30220987.82625169
346,47919599.99999992
993,74424959.99999996
1017,74424959.99999996
1497,394853678.3383526
1533,0.0
1557,0.0
2228,5931735.33957708
2366,2160432.6460151865
4114,38008646.43645519
4126,16519577.605455207
4162,14199365.105798258
4210,11534033.349271927
4236,392693245.69233748
4348,0.0
4473,231514.6356809837
2,1, 1, 1, 0,12, 0.00,60.00,Holiday
11,207886728.6065064
47,78083940.03337977
71,30164340.03337981
346,47919599.99999992
993,74424959.99999996
1017,74424959.99999996
1497,372351199.26241877
1533,11438885.168497468
1557,11438885.168497468
2228,6483325.4159768619
2366,2274456.3362153035
4114,37407699.209324058
4126,16519577.605455207
4162,14199365.105798258
4210,11268057.719962087
4236,358637857.7577059
4348,0.0
4473,218746.22786372898
2,1, 1, 1, 0,13, 0.00,60.00,Holiday
11,233528021.72815959
47,88946611.56477535
71,41027011.56477536
346,47919599.99999992
993,89913239.99999997
1017,89913239.99999997
1497,292795219.3233567
1533,11438885.168497468
1557,11438885.168497468
2228,7012947.641295634
2366,2454079.486072331
4114,36667971.136417809
4126,16519577.605455207
4162,14199365.105798258
4210,10782354.964179855
4236,278902254.6687869
4348,0.0
4473,204896.42149100884
2,1, 1, 1, 0,14, 0.00,60.00,Holiday
11,231667822.04602353
47,89078333.41403555
71,41158733.41403556
346,47919599.99999992
993,89913239.99999997
1017,89913239.99999997
1497,210905942.6394567
1533,0.0
1557,0.0
2228,7456429.61221787
2366,2473087.1557868749
4114,35190902.85074527
4126,16519577.605455207
4162,14199365.105798258
4210,9828337.345803667
4236,208432855.48366983
4348,0.0
4473,200578.8232212612
2,1, 1, 1, 0,15, 0.00,60.00,Holiday
11,230152088.3681994
47,89119377.99751744
71,41199777.99751745
346,47919599.99999992
993,89913239.99999997
1017,89913239.99999997
1497,171432962.48521573
1533,0.0
1557,0.0
2228,7297017.095388811
2366,2316789.8079322318
4114,34256548.62857787
4126,16519577.605455207
4162,14199365.105798258
4210,9366754.948338483
4236,169116172.67728354
4348,0.0
4473,199149.69837687314
2,1, 1, 1, 0,16, 0.00,60.00,Holiday
11,232149097.13466356
47,89242007.99810452
71,41322407.99810454
346,47919599.99999992
993,89913239.99999997
1017,89913239.99999997
1497,215228857.59923179
1533,0.0
1557,0.0
2228,7375826.963378596
2366,2232956.6380294396
4114,34998961.683893758
4126,16519577.605455207
4162,14199365.105798258
4210,10417797.707430838
4236,212995900.96120233
4348,0.0
4473,201262.78185590986
2,1, 1, 1, 0,17, 0.00,60.00,Holiday
11,235046147.8079518
47,89700192.77214182
71,41780592.77214184
346,47919599.99999992
993,89913239.99999997
1017,89913239.99999997
1497,294195769.13029167
1533,28597212.921243654
1557,28597212.921243654
2228,7542212.6815462899
2366,2456877.281537094
4114,36014289.585962448
4126,16519577.605455207
4162,14199365.105798258
4210,11670870.867662089
4236,263141678.92751093
4348,0.0
4473,205341.90063924358
2,1, 1, 1, 0,18, 0.00,60.00,Holiday
11,208306922.71870829
47,78647111.99999994
71,30727511.99999999
346,47919599.99999992
993,74424959.99999996
1017,74424959.99999996
1497,352200905.3516636
1533,28597212.921243654
1557,28597212.921243654
2228,6253421.004371639
2366,2413522.1681110418
4114,36741668.711446959
4126,16519577.605455207
4162,14199365.105798258
4210,12027280.571848885
4236,321190170.2623089
4348,0.0
4473,212480.43104092079
2,1, 1, 1, 0,19, 0.00,60.00,Holiday
11,245745385.93697766
47,106749035.99999982
71,15931835.999999995
346,90817199.99999984
993,101834279.99999984
1017,101834279.99999984
1497,314091859.78142479
1533,28597212.921243654
1557,28597212.921243654
2228,5697583.745113285
2366,1832653.4273122696
4114,31197601.449809839
4126,14487417.026481722
4162,14199365.105798258
4210,41560.861251640425
4236,283661993.4328688
4348,0.0
4473,225323.88080315898
2,1, 1, 1, 0,20, 0.00,60.00,Holiday
11,271084342.8417172
47,124250678.9999998
71,4835078.999999999
346,119415599.9999998
993,118816469.99999982
1017,118816469.99999982
1497,13581519.232120753
1533,0.0
1557,0.0
2228,4843462.8724893
2366,1915631.7197405138
4114,23173730.969228127
4126,8458341.339612136
4162,14199365.105798258
4210,0.0
4236,11665887.512380239
4348,0.0
4473,0.0
2,1, 1, 1, 0,21, 0.00,60.00,Holiday
11,299103350.0059059
47,138549878.9999998
71,4835078.999999999
346,133714799.99999979
993,133115669.99999979
1017,133115669.99999979
1497,6796322.163844985
1533,0.0
1557,0.0
2228,4566324.352020313
2366,1963569.4752822095
4114,22871476.653885943
4126,8458341.339612136
4162,14199365.105798258
4210,0.0
4236,4832752.688562776
4348,0.0
4473,0.0
2,1, 1, 1, 0,22, 0.00,60.00,Holiday
11,269533184.81735566
47,124250678.9999998
71,4835078.999999999
346,119415599.9999998
993,118816469.99999982
1017,118816469.99999982
1497,8634541.437689368
1533,0.0
1557,0.0
2228,3487210.6879584507
2366,1374936.685943266
4114,22978825.129397476
4126,8458341.339612136
4162,14199365.105798258
4210,0.0
4236,7259604.751746103
4348,0.0
4473,0.0
2,1, 1, 1, 0,23, 0.00,60.00,Holiday
11,210181734.68219809
47,95652278.99999984
71,4835078.999999999
346,90817199.99999984
993,90218069.99999985
1017,90218069.99999985
1497,1324046.4744691086
1533,0.0
1557,0.0
2228,1653679.2367879325
2366,1324046.4744691086
4114,22657706.445410395
4126,8458341.339612136
4162,14199365.105798258
4210,0.0
4236,0.0
4348,0.0
4473,0.0
2,1, 1, 1, 0,24, 0.00,60.00,Holiday
11,124331376.04574412
47,52754678.99999992
71,4835078.999999999
346,47919599.99999992
993,47320469.999999929
1017,47320469.999999929
1497,1138244.031947245
1533,0.0
1557,0.0
2228,1598520.6003337769
2366,1138244.031947245
4114,22657706.445410395
4126,8458341.339612136
4162,14199365.105798258
4210,0.0
4236,0.0
4348,0.0
4473,0.0
2,2, 1, 2, 0, 1, 0.00,60.00,Friday
11,66322279.52625928
47,24156278.99999996
71,4835078.999999999
346,19321199.999999968
993,18722069.99999997
1017,18722069.99999997
1497,1105764.1789795676
1533,0.0
1557,0.0
2228,786224.080848948
2366,1105764.1789795676
4114,22657706.445410395
4126,8458341.339612136
4162,14199365.105798258
4210,0.0
4236,0.0
4348,0.0
4473,0.0
2,2, 1, 2, 0, 2, 0.00,60.00,Friday
11,66328791.44564311
47,24156278.99999996
71,4835078.999999999
346,19321199.999999968
993,18722069.99999997
1017,18722069.99999997
1497,1117221.3601976012
1533,0.0
1557,0.0
2228,792736.0002327726
2366,1117221.3601976012
4114,22657706.445410395
4126,8458341.339612136
4162,14199365.105798258
4210,0.0
4236,0.0
4348,0.0
4473,0.0
2,2, 1, 2, 0, 3, 0.00,60.00,Friday
11,67121523.23156396
47,24156278.99999996
71,4835078.999999999
346,19321199.999999968
993,18722069.99999997
1017,18722069.99999997
1497,1034713.1497904272
1533,0.0
1557,0.0
2228,1585467.786153623
2366,1034713.1497904272
4114,22657706.445410395
4126,8458341.339612136
4162,14199365.105798258
4210,0.0
4236,0.0
4348,0.0
4473,0.0
2,2, 1, 2, 0, 4, 0.00,60.00,Friday
11,70088751.89487745
47,24156278.99999996
71,4835078.999999999
346,19321199.999999968
993,18722069.99999997
1017,18722069.99999997
1497,1765671.0277371077
1533,0.0
1557,0.0
2228,786069.651473573
2366,1029817.1899918114
4114,26324664.298979764
4126,12125299.193181504
4162,14199365.105798258
4210,131.74758649536464
4236,735853.8377452961
4348,0.0
4473,99537.19683767177
2,2, 1, 2, 0, 5, 0.00,60.00,Friday
11,70256306.92940724
47,24156278.99999996
71,4835078.999999999
346,19321199.999999968
993,18722069.99999997
1017,18722069.99999997
1497,3399730.3365256835
1533,0.0
1557,0.0
2228,786205.2518384417
2366,1029729.5225788495
4114,26491980.13066324
4126,12255312.363479786
4162,14199365.105798258
4210,273.33912412205708
4236,2370000.813946834
4348,0.0
4473,99499.20778147626
2,2, 1, 2, 0, 6, 0.00,60.00,Friday
11,144107903.4301141
47,53890838.99999992
71,5971238.999999999
346,47919599.99999992
993,47871269.999999929
1017,47871269.999999929
1497,3829245.712529004
1533,0.0
1557,0.0
2228,786316.9291812684
2366,1036599.2902401269
4114,29458066.775335526
4126,15236715.698420182
4162,14199365.105798258
4210,12001944.581384115
4236,2792646.422288877
4348,0.0
4473,99466.14421321906
2,2, 1, 2, 0, 7, 0.00,60.00,Friday
11,217448066.69643719
47,80361638.99999988
71,5971238.999999999
346,74390399.99999988
993,69320069.9999999
1017,69320069.9999999
1497,746506327.2638364
1533,28597212.921243654
1557,28597212.921243654
2228,786331.640137981
2366,1034532.4210735449
4114,53869102.543779078
4126,25433236.031470404
4162,14199365.105798258
4210,12086624.096928996
4236,716874581.921519
4348,0.0
4473,1024299.4155913375
2,2, 1, 2, 0, 8, 0.00,60.00,Friday
11,232281133.32944567
47,95889715.57447404
71,21499315.574474165
346,74390399.99999988
993,83139479.99999988
1017,83139479.99999988
1497,474995999.5893969
1533,28882321.086319496
1557,28882321.086319496
2228,3456394.792118852
2366,1955146.5820081775
4114,37752730.28937137
4126,16594269.9236653
4162,14199365.105798258
4210,11742485.472499742
4236,444158531.92106929
4348,0.0
4473,300327.2009817137
2,2, 1, 2, 0, 9, 0.00,60.00,Friday
11,289685512.15492227
47,125103015.80574492
71,50712615.80574506
346,74390399.99999988
993,112981499.99999987
1017,112981499.99999987
1497,309304659.64903619
1533,285108.16507584266
1557,285108.16507584266
2228,4659749.765747662
2366,2291966.385540881
4114,35186077.013031277
4126,16519577.605455207
4162,14199365.105798258
4210,11534948.287474646
4236,306727585.0984194
4348,0.0
4473,220221.28292381235
2,2, 1, 2, 0,10, 0.00,60.00,Friday
11,347404602.0302756
47,150650858.5985847
71,76260458.59858476
346,74390399.99999988
993,143958059.99999995
1017,143958059.99999995
1497,228650607.40461848
1533,285108.16507584266
1557,285108.16507584266
2228,6127794.179344922
2366,2792070.1963813079
4114,34939571.11907329
4126,16563719.330917377
4162,14199365.105798258
4210,11523952.789786406
4236,225573429.0431613
4348,0.0
4473,204365.34348638659
2,2, 1, 2, 0,11, 0.00,60.00,Friday
11,308617007.4580945
47,129548227.68416927
71,76606627.68416929
346,52941599.9999999
993,122509259.99999996
1017,122509259.99999996
1497,254892083.99188755
1533,513194.69713651677
1557,513194.69713651677
2228,8509847.294575599
2366,3395726.386040492
4114,36585036.6192911
4126,16605486.534961801
4162,14199365.105798258
4210,11261849.688011678
4236,250983162.90871058
4348,0.0
4473,202786.1720468901
2,2, 1, 2, 0,12, 0.00,60.00,Friday
11,310557572.61147019
47,128621653.68680984
71,75680053.68680987
346,52941599.9999999
993,122509259.99999996
1017,122509259.99999996
1497,251746150.99336297
1533,11952079.865633984
1557,11952079.865633984
2228,11786136.35040021
2366,4064678.8336570479
4114,36334277.965973768
4126,16804063.137908497
4162,14199365.105798258
4210,11104286.636605552
4236,235729392.29407195
4348,0.0
4473,201957.97168079875
2,2, 1, 2, 0,13, 0.00,60.00,Friday
11,305099668.2276548
47,125337690.03004691
71,72396090.03004694
346,52941599.9999999
993,122509259.99999996
1017,122509259.99999996
1497,190202639.23798306
1533,11952079.865633984
1557,11952079.865633984
2228,12064301.321075295
2366,4368092.062933708
4114,34198843.2224099
4126,16878998.918950697
4162,14199365.105798258
4210,10788867.867816253
4236,173882467.30941535
4348,0.0
4473,200705.78630654625
2,2, 1, 2, 0,14, 0.00,60.00,Friday
11,302046591.4275892
47,124491467.38462661
71,71549867.38462663
346,52941599.9999999
993,122509259.99999996
1017,122509259.99999996
1497,116141112.4850375
1533,513194.69713651677
1557,513194.69713651677
2228,13043937.295455598
2366,4558732.827610926
4114,32183103.827646525
4126,16932772.069075057
4162,14199365.105798258
4210,9619433.388456958
4236,111069184.96029006
4348,0.0
4473,199389.53140356119
2,2, 1, 2, 0,15, 0.00,60.00,Friday
11,297569524.44015136
47,125104190.453509
71,72162590.45350904
346,52941599.9999999
993,122509259.99999996
1017,122509259.99999996
1497,87363440.2705222
1533,427662.2476137639
1557,427662.2476137639
2228,10287743.366255572
2366,3451162.7857079447
4114,31612022.38977511
4126,17011756.38916309
4162,14199365.105798258
4210,7857612.936853327
4236,83484615.23720052
4348,0.0
4473,198695.29375834816
2,2, 1, 2, 0,16, 0.00,60.00,Friday
11,297395922.35835066
47,127513409.40257006
71,74571809.40257007
346,52941599.9999999
993,122509259.99999996
1017,122509259.99999996
1497,65832549.38274317
1533,427662.2476137639
1557,427662.2476137639
2228,8630621.81620308
2366,3320608.205811263
4114,31695102.88475565
4126,17299609.911659667
4162,14199365.105798258
4210,6849279.605226303
4236,62084278.929318148
4348,0.0
4473,198248.64959565417
2,2, 1, 2, 0,17, 0.00,60.00,Friday
11,300774240.8879297
47,130309948.20168492
71,77368348.20168495
346,52941599.9999999
993,122509259.99999996
1017,122509259.99999996
1497,98565991.22355566
1533,29024875.168857416
1557,29024875.168857416
2228,9264716.850404345
2366,3640271.4815353595
4114,31635534.26413926
4126,17231170.34986956
4162,14199365.105798258
4210,6856509.163401795
4236,65900844.573162879
4348,0.0
4473,198272.40829938075
2,2, 1, 2, 0,18, 0.00,60.00,Friday
11,293281938.81839308
47,123776342.99999996
71,70834742.99999997
346,52941599.9999999
993,118102859.99999997
1017,118102859.99999997
1497,112510188.30647323
1533,29024875.168857416
1557,29024875.168857416
2228,9720434.828647878
2366,3125513.0646398707
4114,31669278.337751144
4126,16938111.453354889
4162,14199365.105798258
4210,9814592.780373693
4236,80359800.07297595
4348,0.0
4473,198429.87162053324
2,2, 1, 2, 0,19, 0.00,60.00,Friday
11,329495852.8349358
47,143344268.99999986
71,47505068.99999999
346,95839199.99999984
993,135564839.99999989
1017,135564839.99999989
1497,131953030.2140293
1533,28597212.921243654
1557,28597212.921243654
2228,8902862.265656103
2366,2982347.218901693
4114,30891092.08036764
4126,16674636.547874097
4162,14199365.105798258
4210,10592632.225881223
4236,100373470.07388395
4348,0.0
4473,200157.26303106626
2,2, 1, 2, 0,20, 0.00,60.00,Friday
11,384298474.4218141
47,171942668.99999974
71,47505068.99999999
346,124437599.9999998
993,164163239.99999974
1017,164163239.99999974
1497,103992912.27385028
1533,0.0
1557,0.0
2228,6468576.9686628649
2366,2483075.816990696
4114,30743426.451692098
4126,16544061.345893838
4162,14199365.105798258
4210,10780074.57523933
4236,101509836.45685958
4348,0.0
4473,200487.42622018059
2,2, 1, 2, 0,21, 0.00,60.00,Friday
11,399195282.4429649
47,180270629.9999997
71,41533829.999999988
346,138736799.9999998
993,169616699.99999974
1017,169616699.99999974
1497,117234488.38787638
1533,0.0
1557,0.0
2228,7220998.234372419
2366,2481366.443148737
4114,30718942.711253466
4126,16519577.605455207
4162,14199365.105798258
4210,11166240.311801292
4236,114753121.94472763
4348,0.0
4473,201771.1855380909
2,2, 1, 2, 0,22, 0.00,60.00,Friday
11,318586794.1849286
47,143777915.9999998
71,19340315.999999998
346,124437599.9999998
993,132085079.9999998
1017,132085079.9999998
1497,2116632.226618568
1533,0.0
1557,0.0
2228,4655922.012175677
2366,2004055.5291750446
4114,24694846.69185227
4126,10490501.918585619
4162,14199365.105798258
4210,13373029.480900987
4236,112576.69744352352
4348,0.0
4473,0.0
2,2, 1, 2, 0,23, 0.00,60.00,Friday
11,230823064.3309564
47,96788438.99999984
71,5971238.999999999
346,90817199.99999984
993,90768869.99999985
1017,90768869.99999985
1497,1347435.3690057484
1533,0.0
1557,0.0
2228,2546208.837432051
2366,1347435.3690057484
4114,24689867.024383878
4126,10490501.918585619
4162,14199365.105798258
4210,16029679.469140728
4236,0.0
4348,0.0
4473,0.0
2,2, 1, 2, 0,24, 0.00,60.00,Friday
11,147080003.89300204
47,52754678.99999992
71,4835078.999999999
346,47919599.99999992
993,47320469.999999929
1017,47320469.999999929
1497,1313366.9006116698
1533,0.0
1557,0.0
2228,1625874.1819057167
2366,1313366.9006116698
4114,24689867.024383878
4126,10490501.918585619
4162,14199365.105798258
4210,20689113.68671248
4236,0.0
4348,0.0
4473,0.0
2,3, 1, 3, 0, 1, 0.00,60.00,Saturday
11,68038004.80106445
47,24156278.99999996
71,4835078.999999999
346,19321199.999999968
993,18722069.99999997
1017,18722069.99999997
1497,1333609.524508663
1533,0.0
1557,0.0
2228,2501949.355654098
2366,1333609.524508663
4114,22657706.445410395
4126,8458341.339612136
4162,14199365.105798258
4210,0.0
4236,0.0
4348,0.0
4473,0.0
2,3, 1, 3, 0, 2, 0.00,60.00,Saturday
11,67192064.91695544
47,24156278.99999996
71,4835078.999999999
346,19321199.999999968
993,18722069.99999997
1017,18722069.99999997
1497,1384656.517853711
1533,0.0
1557,0.0
2228,1653451.6515254474
2366,1326831.1846769048
4114,22660264.265430064
4126,8458341.339612136
4162,14199365.105798258
4210,0.0
4236,57825.33317680622
4348,0.0
4473,0.0
2,3, 1, 3, 0, 3, 0.00,60.00,Saturday
11,67330591.31304115
47,24156278.99999996
71,4835078.999999999
346,19321199.999999968
993,18722069.99999997
1017,18722069.99999997
1497,4871209.345178679
1533,0.0
1557,0.0
2228,1625535.6112097195
2366,1050576.444336269
4114,22826706.70183147
4126,8458341.339612136
4162,14199365.105798258
4210,0.0
4236,3820632.90084241
4348,0.0
4473,0.0
2,3, 1, 3, 0, 4, 0.00,60.00,Saturday
11,67833077.78955731
47,24156278.99999996
71,4835078.999999999
346,19321199.999999968
993,18722069.99999997
1017,18722069.99999997
1497,17089466.891178986
1533,0.0
1557,0.0
2228,1598612.3333354823
2366,1300341.1706255056
4114,23356116.45622187
4126,8458341.339612136
4162,14199365.105798258
4210,0.0
4236,15789125.72055348
4348,0.0
4473,0.0
2,3, 1, 3, 0, 5, 0.00,60.00,Saturday
11,68189675.77393453
47,24156278.99999996
71,4835078.999999999
346,19321199.999999968
993,18722069.99999997
1017,18722069.99999997
1497,42962702.35294139
1533,0.0
1557,0.0
2228,799222.5607743054
2366,1039878.4534932388
4114,24512104.21316027
4126,8458341.339612136
4162,14199365.105798258
4210,0.0
4236,41922823.89944815
4348,0.0
4473,0.0
2,3, 1, 3, 0, 6, 0.00,60.00,Saturday
11,177622359.18105794
47,52754678.99999992
71,4835078.999999999
346,47919599.99999992
993,47320469.999999929
1017,47320469.999999929
1497,40437587.04031744
1533,0.0
1557,0.0
2228,1598660.0758938739
2366,1080824.4860454375
4114,26430758.44849023
4126,10490501.918585619
4162,14199365.105798258
4210,49517791.65667389
4236,39356762.554271999
4348,0.0
4473,0.0
2,3, 1, 3, 0, 7, 0.00,60.00,Saturday
11,265892274.82517965
47,80361638.99999988
71,5971238.999999999
346,74390399.99999988
993,69320069.9999999
1017,69320069.9999999
1497,1068187381.6786791
1533,28597212.921243654
1557,28597212.921243654
2228,1612230.070060593
2366,1278901.4334967435
4114,64204509.35632571
4126,23869142.916346335
4162,14199365.105798258
4210,49280593.25630516
4236,1038311267.3239386
4348,0.0
4473,1113233.142488407
2,3, 1, 3, 0, 8, 0.00,60.00,Saturday
11,255995615.47049809
47,83789723.26029694
71,9399323.26029706
346,74390399.99999988
993,73192139.99999988
1017,73192139.99999988
1497,729520469.9120195
1533,28597212.921243654
1557,28597212.921243654
2228,3619068.8836591804
2366,1846490.5406083633
4114,45301288.371058169
4126,16544957.092342314
4162,14199365.105798258
4210,49651445.48084998
4236,699076766.4501674
4348,0.0
4473,441949.4746339347
2,3, 1, 3, 0, 9, 0.00,60.00,Saturday
11,287377136.2085682
47,101255844.3235796
71,26865444.323579737
346,74390399.99999988
993,90883619.99999987
1017,90883619.99999987
1497,538506490.9466568
1533,285108.16507584266
1557,285108.16507584266
2228,5215959.461282513
2366,2187137.7247384076
4114,40085506.870175387
4126,16519577.605455207
4162,14199365.105798258
4210,49592774.46801694
4236,536034245.05684259
4348,0.0
4473,343431.08551388556
2,3, 1, 3, 0,10, 0.00,60.00,Saturday
11,323216914.1147109
47,117998616.28077175
71,43608216.28077188
346,74390399.99999988
993,114116039.99999988
1017,114116039.99999988
1497,389138183.8026344
1533,285108.16507584266
1557,285108.16507584266
2228,5285677.485702502
2366,2123638.8076093217
4114,36815639.95515073
4126,16563807.381730546
4162,14199365.105798258
4210,48733961.58423444
4236,386729436.82994928
4348,0.0
4473,266978.80885163959
2,3, 1, 3, 0,11, 0.00,60.00,Saturday
11,302718147.50114968
47,116618011.36194092
71,63676411.361940938
346,52941599.9999999
993,115899659.99999997
1017,115899659.99999997
1497,309483196.5932317
1533,513194.69713651677
1557,513194.69713651677
2228,9117876.047119638
2366,2965785.0718290566
4114,35869315.72706036
4126,16649966.57332801
4162,14199365.105798258
4210,24986062.880522226
4236,306004216.8242661
4348,0.0
4473,227221.48450657555
2,3, 1, 3, 0,12, 0.00,60.00,Saturday
11,295687361.35771319
47,116554901.55923768
71,63613301.55923769
346,52941599.9999999
993,115899659.99999997
1017,115899659.99999997
1497,258313748.5996493
1533,11952079.865633984
1557,11952079.865633984
2228,10683254.44552413
2366,3610652.7831710178
4114,34628826.30935594
4126,16886937.64941616
4162,14199365.105798258
4210,17707424.332582676
4236,242751015.95084433
4348,0.0
4473,213294.71101286787
2,3, 1, 3, 0,13, 0.00,60.00,Saturday
11,286695850.6402129
47,113012511.38913447
71,60070911.38913448
346,52941599.9999999
993,114247259.99999997
1017,114247259.99999997
1497,216352351.39101226
1533,11952079.865633984
1557,11952079.865633984
2228,11652047.319370442
2366,3706039.460637695
4114,33669420.38665837
4126,16968327.668008388
4162,14199365.105798258
4210,13906856.564861222
4236,200694232.06474058
4348,0.0
4473,207754.98018850998
2,3, 1, 3, 0,14, 0.00,60.00,Saturday
11,284686622.0367609
47,113066815.79057148
71,60125215.7905715
346,52941599.9999999
993,114247259.99999997
1017,114247259.99999997
1497,154398721.50458417
1533,513194.69713651677
1557,513194.69713651677
2228,12816406.95986703
2366,3709189.537190366
4114,32722581.591258706
4126,17028135.396263005
4162,14199365.105798258
4210,11566873.185921006
4236,150176337.27025727
4348,63913.87482863544
4473,202770.6343141654
2,3, 1, 3, 0,15, 0.00,60.00,Saturday
11,281101639.5562303
47,113206186.36003314
71,60264586.36003315
346,52941599.9999999
993,114247259.99999997
1017,114247259.99999997
1497,114482456.15213351
1533,427662.2476137639
1557,427662.2476137639
2228,9975960.877526015
2366,3078648.6754145019
4114,32379567.52468731
4126,17263393.728829158
4162,14199365.105798258
4210,10744320.89495625
4236,110976145.22910525
4348,348510.3962811129
4473,199833.50274656516
2,3, 1, 3, 0,16, 0.00,60.00,Saturday
11,280963154.5814998
47,113491461.04647781
71,60549861.04647783
346,52941599.9999999
993,114247259.99999997
1017,114247259.99999997
1497,100605226.3363799
1533,427662.2476137639
1557,427662.2476137639
2228,9649398.34087657
2366,3022379.0129239109
4114,32535361.862377634
4126,17550090.704373227
4162,14199365.105798258
4210,10548344.678617847
4236,97155185.07584223
4348,292247.6326080862
4473,199081.0205420173
2,3, 1, 3, 0,17, 0.00,60.00,Saturday
11,285418854.8456276
47,117991929.89790322
71,65050329.89790324
346,52941599.9999999
993,114247259.99999997
1017,114247259.99999997
1497,135286544.24264074
1533,29024875.168857416
1557,29024875.168857416
2228,9310946.255732777
2366,3019859.4253551468
4114,32782223.136746196
4126,17752325.647310579
4162,14199365.105798258
4210,10861533.447134447
4236,103241809.64842817
4348,25686.265250121567
4473,199275.84286092598
2,3, 1, 3, 0,18, 0.00,60.00,Saturday
11,280526606.97656968
47,111937382.99999996
71,64017782.99999998
346,47919599.99999992
993,113145659.99999997
1017,113145659.99999997
1497,197433925.0825373
1533,28597212.921243654
1557,28597212.921243654
2228,9020449.902855054
2366,2942919.944751139
4114,33185435.442360395
4126,17217758.921675076
4162,14199365.105798258
4210,13033957.14576121
4236,165893792.2165425
4348,0.0
4473,203721.48559315256
2,3, 1, 3, 0,19, 0.00,60.00,Saturday
11,314070900.6943054
47,128942549.99999987
71,38125349.999999988
346,90817199.99999984
993,125066699.99999988
1017,125066699.99999988
1497,213839331.71350599
1533,28597212.921243654
1557,28597212.921243654
2228,9357061.164429328
2366,2682091.384354204
4114,31530626.744862394
4126,16519577.605455207
4162,14199365.105798258
4210,18961224.888673057
4236,182560027.40790815
4348,0.0
4473,212737.89634087278
2,3, 1, 3, 0,20, 0.00,60.00,Saturday
11,317527134.61333236
47,142745273.9999998
71,23329673.999999994
346,119415599.9999998
993,138176819.9999998
1017,138176819.9999998
1497,208375266.26236595
1533,0.0
1557,0.0
2228,7459092.285076719
2366,2389589.930477993
4114,28886013.24097324
4126,14487417.026481722
4162,14199365.105798258
4210,36315.24424120511
4236,205985676.3318879
4348,0.0
4473,223619.84304152625
2,3, 1, 3, 0,21, 0.00,60.00,Saturday
11,344504882.0651903
47,157044473.99999977
71,23329673.999999994
346,133714799.99999979
993,152476019.99999977
1017,152476019.99999977
1497,227120227.5702146
1533,0.0
1557,0.0
2228,5932675.7278502569
2366,2341822.2915117118
4114,28780711.419625909
4126,14487417.026481722
4162,14199365.105798258
4210,40636.739862267255
4236,224778405.2787029
4348,0.0
4473,230364.17785224916
2,3, 1, 3, 0,22, 0.00,60.00,Saturday