Program Version,EnergyPlus, Version 9.0.1-bb7ca4f0da, YMD=2019.12.17 18:55
1,5,Environment Title[],Latitude[deg],Longitude[deg],Time Zone[],Elevation[m]
2,8,Day of Simulation[],Month[],Day of Month[],DST Indicator[1=yes 0=no],Hour[],StartMinute[],EndMinute[],DayType
3,5,Cumulative Day of Simulation[],Month[],Day of Month[],DST Indicator[1=yes 0=no],DayType  ! When Daily Meters Requested
4,2,Cumulative Days of Simulation[],Month[]  ! When Monthly Meters Requested
5,1,Cumulative Days of Simulation[] ! When Run Period Meters Requested
6,1,Calendar Year of Simulation[] ! When Annual Meters Requested
4473,1,Pumps:Electricity [J] !Hourly
11,1,Electricity:Facility [J] !Hourly
4126,1,General:Fans:Electricity [J] !Hourly
47,1,InteriorLights:Electricity [J] !Hourly
4114,1,Fans:Electricity [J] !Hourly
993,1,InteriorEquipment:Electricity [J] !Hourly
4210,1,Heating:Electricity [J] !Hourly
4348,1,Cooling:Electricity [J] !Hourly
2228,1,WaterSystems:Electricity [J] !Hourly
2366,1,WaterSystems:Gas [J] !Hourly
1497,1,Gas:Facility [J] !Hourly
1533,1,InteriorEquipment:Gas [J] !Hourly
4236,1,Heating:Gas [J] !Hourly
1017,1,Receptacle:InteriorEquipment:Electricity [J] !Hourly
1557,1,Receptacle:InteriorEquipment:Gas [J] !Hourly
71,1,ComplianceLtg:InteriorLights:Electricity [J] !Hourly
346,1,NonComplianceLtg:InteriorLights:Electricity [J] !Hourly
4162,1,ProcessMotors:Fans:Electricity [J] !Hourly
End of Data Dictionary
1,SAN-JOSE-INTL_724945_CZ2010,  37.37,-121.93,  -8.00,  16.00
2,1, 1, 1, 0, 1, 0.00,60.00,Holiday
11,66341557.518742408
47,24156278.99999996
71,4835078.999999999
346,19321199.999999968
993,18722069.99999997
1017,18722069.99999997
1497,1042349.4213998953
1533,0.0
1557,0.0
2228,805502.0733320596
2366,1042349.4213998953
4114,22657706.445410395
4126,8458341.339612136
4162,14199365.10579826
4210,0.0
4236,0.0
4348,0.0
4473,0.0
2,1, 1, 1, 0, 2, 0.00,60.00,Holiday
11,67146844.29876013
47,24156278.99999996
71,4835078.999999999
346,19321199.999999968
993,18722069.99999997
1017,18722069.99999997
1497,1042592.5507880347
1533,0.0
1557,0.0
2228,1610788.8533497877
2366,1042592.5507880347
4114,22657706.445410395
4126,8458341.339612136
4162,14199365.10579826
4210,0.0
4236,0.0
4348,0.0
4473,0.0
2,1, 1, 1, 0, 3, 0.00,60.00,Holiday
11,67146862.32719863
47,24156278.99999996
71,4835078.999999999
346,19321199.999999968
993,18722069.99999997
1017,18722069.99999997
1497,1303235.4090085263
1533,0.0
1557,0.0
2228,1610806.8817882795
2366,1303235.4090085263
4114,22657706.445410395
4126,8458341.339612136
4162,14199365.10579826
4210,0.0
4236,0.0
4348,0.0
4473,0.0
2,1, 1, 1, 0, 4, 0.00,60.00,Holiday
11,66334837.45500685
47,24156278.99999996
71,4835078.999999999
346,19321199.999999968
993,18722069.99999997
1017,18722069.99999997
1497,1037175.8276453293
1533,0.0
1557,0.0
2228,798782.0095965132
2366,1037175.8276453293
4114,22657706.445410395
4126,8458341.339612136
4162,14199365.10579826
4210,0.0
4236,0.0
4348,0.0
4473,0.0
2,1, 1, 1, 0, 5, 0.00,60.00,Holiday
11,67133692.27701709
47,24156278.99999996
71,4835078.999999999
346,19321199.999999968
993,18722069.99999997
1017,18722069.99999997
1497,1037410.8491177575
1533,0.0
1557,0.0
2228,1597636.831606752
2366,1037410.8491177575
4114,22657706.445410395
4126,8458341.339612136
4162,14199365.10579826
4210,0.0
4236,0.0
4348,0.0
4473,0.0
2,1, 1, 1, 0, 6, 0.00,60.00,Holiday
11,136883542.3940312
47,52754678.99999992
71,4835078.999999999
346,47919599.99999992
993,47320469.999999929
1017,47320469.999999929
1497,1305365.3753127403
1533,0.0
1557,0.0
2228,1597675.7870477292
2366,1305365.3753127403
4114,24689867.02438388
4126,10490501.918585619
4162,14199365.10579826
4210,10520850.582599646
4236,0.0
4348,0.0
4473,0.0
2,1, 1, 1, 0, 7, 0.00,60.00,Holiday
11,190225048.49129725
47,74203478.99999988
71,4835078.999999999
346,69368399.9999999
993,68769269.9999999
1017,68769269.9999999
1497,281060896.51980057
1533,28597212.921243654
1557,28597212.921243654
2228,805527.645859917
2366,1042543.3363876545
4114,35811130.001152608
4126,10490501.91858562
4162,14199365.10579826
4210,10635641.84428492
4236,251421140.26216919
4348,0.0
4473,0.0
2,1, 1, 1, 0, 8, 0.00,60.00,Holiday
11,187737948.54602588
47,74200627.58204538
71,4832227.582045493
346,69368399.9999999
993,68769269.9999999
1017,68769269.9999999
1497,154991163.97253336
1533,28597212.921243654
1557,28597212.921243654
2228,2477642.540676819
2366,1322877.9565729616
4114,31920386.255672635
4126,12197612.10035917
4162,14199365.10579826
4210,10345137.977483832
4236,125071073.09471672
4348,0.0
4473,24884.19014727667
2,1, 1, 1, 0, 9, 0.00,60.00,Holiday
11,205063394.87604694
47,77864265.5937491
71,8495865.593749222
346,69368399.9999999
993,72641339.99999988
1017,72641339.99999988
1497,420664097.26927986
1533,0.0
1557,0.0
2228,2520514.105486745
2366,1336475.6135418886
4114,41473889.75226157
4126,23536585.044788295
4162,14199365.10579826
4210,9810841.446404115
4236,419327621.655738
4348,0.0
4473,752543.9781454841
2,1, 1, 1, 0,10, 0.00,60.00,Holiday
11,196830605.6695847
47,77818802.32999805
71,8450402.329998168
346,69368399.9999999
993,72641339.99999988
1017,72641339.99999988
1497,319898445.11148336
1533,0.0
1557,0.0
2228,2564791.749687014
2366,1349950.3836431814
4114,33976250.64526782
4126,16555262.603184823
4162,14199365.10579826
4210,9565536.128189093
4236,318548494.7278402
4348,0.0
4473,263884.81644279338
2,1, 1, 1, 0,11, 0.00,60.00,Holiday
11,204076279.898858
47,78179413.57358897
71,30259813.573589013
346,47919599.99999992
993,74424959.99999996
1017,74424959.99999996
1497,281607171.570521
1533,0.0
1557,0.0
2228,5909596.711573668
2366,2047760.3702300017
4114,35548980.953915048
4126,16519577.605455209
4162,14199365.10579826
4210,9802820.118077027
4236,279559411.2002909
4348,0.0
4473,210508.54170341543
2,1, 1, 1, 0,12, 0.00,60.00,Holiday
11,204970482.59022079
47,78042289.0661919
71,30122689.06619194
346,47919599.99999992
993,74424959.99999996
1017,74424959.99999996
1497,302312981.19669976
1533,11438885.168497468
1557,11438885.168497468
2228,6032014.059429919
2366,2378471.534349769
4114,36105455.204970698
4126,16519577.605455209
4162,14199365.10579826
4210,10157986.95671856
4236,288495624.4938525
4348,0.0
4473,207777.30290976307
2,1, 1, 1, 0,13, 0.00,60.00,Holiday
11,232490154.96150435
47,88622815.562555
71,40703215.562555018
346,47919599.99999992
993,89913239.99999997
1017,89913239.99999997
1497,253101439.91439546
1533,11438885.168497468
1557,11438885.168497468
2228,7422368.756253317
2366,2323082.1995652767
4114,36093029.0252893
4126,16519577.605455209
4162,14199365.10579826
4210,10237321.584970156
4236,239339472.5463327
4348,0.0
4473,201380.0324366416
2,1, 1, 1, 0,14, 0.00,60.00,Holiday
11,232194379.1382176
47,88809111.32427994
71,40889511.32427996
346,47919599.99999992
993,89913239.99999997
1017,89913239.99999997
1497,220132621.49977357
1533,0.0
1557,0.0
2228,7423152.044671244
2366,2440367.761067262
4114,35817088.62843922
4126,16519577.605455209
4162,14199365.10579826
4210,10031702.961203849
4236,217692253.73870636
4348,0.0
4473,200084.17962342275
2,1, 1, 1, 0,15, 0.00,60.00,Holiday
11,231015370.9624559
47,88882918.73127637
71,40963318.731276389
346,47919599.99999992
993,89913239.99999997
1017,89913239.99999997
1497,207593662.6005221
1533,0.0
1557,0.0
2228,6456456.241284554
2366,2265261.0611413989
4114,35643502.6827307
4126,16519577.605455209
4162,14199365.10579826
4210,9919734.159907205
4236,205328401.53938068
4348,0.0
4473,199519.14725715944
2,1, 1, 1, 0,16, 0.00,60.00,Holiday
11,230164504.57029645
47,88916847.15711832
71,40997247.15711835
346,47919599.99999992
993,89913239.99999997
1017,89913239.99999997
1497,165731692.1560606
1533,0.0
1557,0.0
2228,7108738.340424219
2366,2421342.6070007688
4114,34381309.94492317
4126,16519577.605455209
4162,14199365.10579826
4210,9645498.33338177
4236,163310349.54905985
4348,0.0
4473,198870.7944490535
2,1, 1, 1, 0,17, 0.00,60.00,Holiday
11,230442633.7189103
47,89606015.86764741
71,41686415.86764742
346,47919599.99999992
993,89913239.99999997
1017,89913239.99999997
1497,174452873.8487449
1533,28597212.921243654
1557,28597212.921243654
2228,7504095.3537930729
2366,2448932.9768106208
4114,33648093.85496782
4126,16519577.605455209
4162,14199365.10579826
4210,9572479.209622089
4236,143406727.95069064
4348,0.0
4473,198709.43287998456
2,1, 1, 1, 0,18, 0.00,60.00,Holiday
11,204320051.2039457
47,78647111.99999994
71,30727511.99999999
346,47919599.99999992
993,74424959.99999996
1017,74424959.99999996
1497,221587120.15945257
1533,28597212.921243654
1557,28597212.921243654
2228,7263365.5093854819
2366,2106253.5912500096
4114,33969507.20762351
4126,16519577.605455209
4162,14199365.10579826
4210,9814228.609707725
4236,190883653.6469589
4348,0.0
4473,200877.87722911253
2,1, 1, 1, 0,19, 0.00,60.00,Holiday
11,242923282.5678106
47,106749035.99999982
71,15931835.999999995
346,90817199.99999984
993,101834279.99999984
1017,101834279.99999984
1497,218002047.05367587
1533,28597212.921243654
1557,28597212.921243654
2228,4733062.619344333
2366,2003357.780466701
4114,29368105.547345848
4126,14487417.026481724
4162,14199365.10579826
4210,30794.709317078694
4236,187401476.35196556
4348,0.0
4473,208003.69180358447
2,1, 1, 1, 0,20, 0.00,60.00,Holiday
11,271596040.67662939
47,124250678.9999998
71,4835078.999999999
346,119415599.9999998
993,118816469.99999982
1017,118816469.99999982
1497,4789464.737099736
1533,0.0
1557,0.0
2228,5748918.560006739
2366,2025353.3022641619
4114,22779973.116622896
4126,8458341.339612136
4162,14199365.10579826
4210,0.0
4236,2764111.434835574
4348,0.0
4473,0.0
2,1, 1, 1, 0,21, 0.00,60.00,Holiday
11,298052540.88711896
47,138549878.9999998
71,4835078.999999999
346,133714799.99999979
993,133115669.99999979
1017,133115669.99999979
1497,2688594.874336457
1533,0.0
1557,0.0
2228,3684697.999819834
2366,1680594.8088442016
4114,22702293.88729942
4126,8458341.339612136
4162,14199365.10579826
4210,0.0
4236,1008000.0654922552
4348,0.0
4473,0.0
2,1, 1, 1, 0,22, 0.00,60.00,Holiday
11,269275872.6496278
47,124250678.9999998
71,4835078.999999999
346,119415599.9999998
993,118816469.99999982
1017,118816469.99999982
1497,3222610.604395025
1533,0.0
1557,0.0
2228,3481377.0496498874
2366,1648238.1840435519
4114,22727346.59997818
4126,8458341.339612136
4162,14199365.10579826
4210,0.0
4236,1574372.4203514734
4348,0.0
4473,0.0
2,1, 1, 1, 0,23, 0.00,60.00,Holiday
11,210179691.93281947
47,95652278.99999984
71,4835078.999999999
346,90817199.99999984
993,90218069.99999985
1017,90218069.99999985
1497,1322970.6628311044
1533,0.0
1557,0.0
2228,1651636.4874093333
2366,1322970.6628311044
4114,22657706.445410395
4126,8458341.339612136
4162,14199365.10579826
4210,0.0
4236,0.0
4348,0.0
4473,0.0
2,1, 1, 1, 0,24, 0.00,60.00,Holiday
11,124330624.2696
47,52754678.99999992
71,4835078.999999999
346,47919599.99999992
993,47320469.999999929
1017,47320469.999999929
1497,1037409.193197022
1533,0.0
1557,0.0
2228,1597768.8241896427
2366,1037409.193197022
4114,22657706.445410395
4126,8458341.339612136
4162,14199365.10579826
4210,0.0
4236,0.0
4348,0.0
4473,0.0
2,2, 1, 2, 0, 1, 0.00,60.00,Friday
11,66322005.60619525
47,24156278.99999996
71,4835078.999999999
346,19321199.999999968
993,18722069.99999997
1017,18722069.99999997
1497,1029594.1692773067
1533,0.0
1557,0.0
2228,785950.1607849111
2366,1029594.1692773067
4114,22657706.445410395
4126,8458341.339612136
4162,14199365.10579826
4210,0.0
4236,0.0
4348,0.0
4473,0.0
2,2, 1, 2, 0, 2, 0.00,60.00,Friday
11,66328418.44225689
47,24156278.99999996
71,4835078.999999999
346,19321199.999999968
993,18722069.99999997
1017,18722069.99999997
1497,1034376.3728327393
1533,0.0
1557,0.0
2228,792362.9968465512
2366,1034376.3728327393
4114,22657706.445410395
4126,8458341.339612136
4162,14199365.10579826
4210,0.0
4236,0.0
4348,0.0
4473,0.0
2,2, 1, 2, 0, 3, 0.00,60.00,Friday
11,67176612.05405256
47,24156278.99999996
71,4835078.999999999
346,19321199.999999968
993,18722069.99999997
1017,18722069.99999997
1497,2297313.8373622356
1533,0.0
1557,0.0
2228,1584699.3200414929
2366,1034533.0052079778
4114,22713563.73401111
4126,8458341.339612136
4162,14199365.10579826
4210,0.0
4236,1262780.8321542578
4348,0.0
4473,0.0
2,2, 1, 2, 0, 4, 0.00,60.00,Friday
11,66890434.143264409
47,24156278.99999996
71,4835078.999999999
346,19321199.999999968
993,18722069.99999997
1017,18722069.99999997
1497,13884157.210405166
1533,0.0
1557,0.0
2228,785773.9623057183
2366,1029570.7764179396
4114,23226311.180958734
4126,8458341.339612136
4162,14199365.10579826
4210,0.0
4236,12854586.433987227
4348,0.0
4473,0.0
2,2, 1, 2, 0, 5, 0.00,60.00,Friday
11,67836346.91388846
47,24156278.99999996
71,4835078.999999999
346,19321199.999999968
993,18722069.99999997
1017,18722069.99999997
1497,35266070.60577376
1533,0.0
1557,0.0
2228,785888.4017930566
2366,1029589.3559466936
4114,24172109.512095468
4126,8458341.339612136
4162,14199365.10579826
4210,0.0
4236,34236481.249827068
4348,0.0
4473,0.0
2,2, 1, 2, 0, 6, 0.00,60.00,Friday
11,156375126.7459175
47,53890838.99999992
71,5971238.999999999
346,47919599.99999992
993,47871269.999999929
1017,47871269.999999929
1497,30434493.022338638
1533,0.0
1557,0.0
2228,785991.2969575744
2366,1036314.1635079577
4114,25990254.385156383
4126,10490501.918585619
4162,14199365.10579826
4210,27836772.063803615
4236,29398178.858830677
4348,0.0
4473,0.0
2,2, 1, 2, 0, 7, 0.00,60.00,Friday
11,241814969.63735614
47,80361638.99999988
71,5971238.999999999
346,74390399.99999988
993,69320069.9999999
1017,69320069.9999999
1497,1016583356.3506363
1533,28597212.921243654
1557,28597212.921243654
2228,786020.6679961681
2366,1274120.8616093649
4114,62988310.08905128
4126,23718078.946773244
4162,14199365.105798258
4210,27318387.994540674
4236,986712022.5677832
4348,0.0
4473,1040541.885768241
2,2, 1, 2, 0, 8, 0.00,60.00,Friday
11,261038262.46677179
47,95754946.90930653
71,21364546.90930665
346,74390399.99999988
993,83139479.99999988
1017,83139479.99999988
1497,692562332.3202261
1533,28882321.086319496
1557,28882321.086319496
2228,3256356.288703664
2366,1705324.1592990319
4114,45275920.53259328
4126,16544224.712646377
4162,14199365.10579826
4210,33261282.319324919
4236,661974687.0746076
4348,0.0
4473,350276.4168435559
2,2, 1, 2, 0, 9, 0.00,60.00,Friday
11,315773796.02479586
47,123245673.0329594
71,48855273.03295952
346,74390399.99999988
993,112981499.99999987
1017,112981499.99999987
1497,509724028.6405174
1533,285108.16507584266
1557,285108.16507584266
2228,4711203.080970211
2366,2442062.221456809
4114,41381137.70961876
4126,16519577.605455209
4162,14199365.10579826
4210,33192358.012904038
4236,506996858.2539848
4348,0.0
4473,261924.1883434981
2,2, 1, 2, 0,10, 0.00,60.00,Friday
11,361279564.84369817
47,149544905.52105106
71,75154505.5210511
346,74390399.99999988
993,143958059.99999995
1017,143958059.99999995
1497,383461581.42404428
1533,285108.16507584266
1557,285108.16507584266
2228,6261788.201332862
2366,2641515.3751376748
4114,39497370.86953988
4126,16563760.910923746
4162,14199365.10579826
4210,21796395.039561579
4236,380534957.88383069
4348,0.0
4473,221045.2122128462
2,2, 1, 2, 0,11, 0.00,60.00,Friday
11,311141264.9310547
47,128127258.30433974
71,75185658.30433975
346,52941599.9999999
993,122509259.99999996
1017,122509259.99999996
1497,331953036.17401918
1533,513194.69713651677
1557,513194.69713651677
2228,7858563.1480875699
2366,3403793.127320759
4114,39043140.77812842
4126,16615857.720589456
4162,14199365.10579826
4210,13395665.23522978
4236,328036048.34956189
4348,0.0
4473,207377.46526920956
2,2, 1, 2, 0,12, 0.00,60.00,Friday
11,311225889.8214996
47,128470218.41625315
71,75528618.4162532
346,52941599.9999999
993,122509259.99999996
1017,122509259.99999996
1497,260106348.11692698
1533,11952079.865633984
1557,11952079.865633984
2228,11909313.308348239
2366,3954983.5257502819
4114,37255658.44098512
4126,16840893.111456947
4162,14199365.10579826
4210,10880381.220951047
4236,244199284.72554273
4348,0.0
4473,201058.4349620401
2,2, 1, 2, 0,13, 0.00,60.00,Friday
11,307608275.8615408
47,126258418.05305113
71,73316818.05305116
346,52941599.9999999
993,122509259.99999996
1017,122509259.99999996
1497,215012220.0697891
1533,11952079.865633984
1557,11952079.865633984
2228,12408716.162535407
2366,4404202.565155929
4114,35432562.874776948
4126,16899431.088571088
4162,14199365.10579826
4210,10799008.89642062
4236,198655937.63899923
4348,0.0
4473,200309.87475680575
2,2, 1, 2, 0,14, 0.00,60.00,Friday
11,310113282.91958406
47,129100159.66204548
71,76158559.66204551
346,52941599.9999999
993,122509259.99999996
1017,122509259.99999996
1497,201836342.26701928
1533,513194.69713651677
1557,513194.69713651677
2228,12006849.85950435
2366,4447818.591508942
4114,35500384.90805311
4126,16954708.013356959
4162,14199365.10579826
4210,10796402.771513034
4236,196875328.97837384
4348,0.0
4473,200225.7184681721
2,2, 1, 2, 0,15, 0.00,60.00,Friday
11,307502360.6895232
47,128843244.46552034
71,75901644.46552035
346,52941599.9999999
993,122509259.99999996
1017,122509259.99999996
1497,188587613.33792503
1533,427662.2476137639
1557,427662.2476137639
2228,10102777.316753727
2366,3464232.052844246
4114,35649522.24733457
4126,17036469.13448369
4162,14199365.10579826
4210,10198322.282515808
4236,184695719.037467
4348,0.0
4473,199234.3773987888
2,2, 1, 2, 0,16, 0.00,60.00,Friday
11,300541346.297154
47,125153515.09899767
71,72211915.09899768
346,52941599.9999999
993,122509259.99999996
1017,122509259.99999996
1497,140669429.0126015
1533,427662.2476137639
1557,427662.2476137639
2228,9094323.090071522
2366,3273373.274897993
4114,34462427.58545585
4126,17397822.119518799
4162,14199365.10579826
4210,9123219.858504139
4236,136968393.4900897
4348,0.0
4473,198600.66412481803
2,2, 1, 2, 0,17, 0.00,60.00,Friday
11,305271867.695471
47,129252086.32614191
71,76310486.32614193
346,52941599.9999999
993,122509259.99999996
1017,122509259.99999996
1497,186441271.32489116
1533,29024875.168857416
1557,29024875.168857416
2228,9535823.637499635
2366,3619927.531590442
4114,34509586.69642234
4126,17410433.270313186
4162,14199365.10579826
4210,9265770.782190836
4236,153796468.6244433
4348,0.0
4473,199340.25321635838
2,2, 1, 2, 0,18, 0.00,60.00,Friday
11,299346510.33273819
47,123776342.99999996
71,70834742.99999997
346,52941599.9999999
993,118102859.99999997
1017,118102859.99999997
1497,251137196.8005317
1533,29024875.168857416
1557,29024875.168857416
2228,9645914.588927063
2366,3110620.280174222
4114,35852715.04327133
4126,16994777.38107553
4162,14199365.10579826
4210,11766992.158899755
4236,219001701.35150004
4348,0.0
4473,201685.54164009327
2,2, 1, 2, 0,19, 0.00,60.00,Friday
11,331958911.9184814
47,143344268.99999986
71,47505068.99999999
346,95839199.99999984
993,135564839.99999989
1017,135564839.99999989
1497,205760419.14829219
1533,28597212.921243654
1557,28597212.921243654
2228,7947187.3534487229
2366,2970480.619343875
4114,32727084.217188699
4126,16681600.14322785
4162,14199365.10579826
4210,12170872.102100872
4236,174192725.60770468
4348,0.0
4473,204659.24574332257
2,2, 1, 2, 0,20, 0.00,60.00,Friday
11,387944630.56905367
47,171942668.99999974
71,47505068.99999999
346,124437599.9999998
993,164163239.99999974
1017,164163239.99999974
1497,152164450.1883159
1533,0.0
1557,0.0
2228,7265993.754019013
2366,2475260.3531293587
4114,31281532.423434944
4126,16554197.335290084
4162,14199365.10579826
4210,13085387.773065266
4236,149689189.83518655
4348,0.0
4473,205807.6185348037
2,2, 1, 2, 0,21, 0.00,60.00,Friday
11,402818667.9731699
47,180270629.9999997
71,41533829.999999988
346,138736799.9999998
993,169616699.99999974
1017,169616699.99999974
1497,161001894.73678575
1533,0.0
1557,0.0
2228,6162176.467603136
2366,2473478.826544609
4114,31103325.30712479
4126,16519577.605455209
4162,14199365.10579826
4210,15457329.707027
4236,158528415.91024114
4348,0.0
4473,208506.49141538598
2,2, 1, 2, 0,22, 0.00,60.00,Friday
11,322506329.6080867
47,143777915.9999998
71,19340315.999999998
346,124437599.9999998
993,132085079.9999998
1017,132085079.9999998
1497,17541128.690591989
1533,0.0
1557,0.0
2228,4643218.1125489
2366,2000448.617497734
4114,25377287.633480088
4126,10490501.918585619
4162,14199365.10579826
4210,16622827.862058072
4236,15540680.073094253
4348,0.0
4473,0.0
2,2, 1, 2, 0,23, 0.00,60.00,Friday
11,233089433.6321001
47,96788438.99999984
71,5971238.999999999
346,90817199.99999984
993,90768869.99999985
1017,90768869.99999985
1497,1346325.3526767456
1533,0.0
1557,0.0
2228,2542820.8468939296
2366,1346325.3526767456
4114,24689867.02438388
4126,10490501.918585619
4162,14199365.10579826
4210,18299436.760822555
4236,0.0
4348,0.0
4473,0.0
2,2, 1, 2, 0,24, 0.00,60.00,Friday
11,147416695.09426127
47,52754678.99999992
71,4835078.999999999
346,47919599.99999992
993,47320469.999999929
1017,47320469.999999929
1497,1054905.857919685
1533,0.0
1557,0.0
2228,1624510.5668464462
2366,1054905.857919685
4114,24689867.02438388
4126,10490501.918585619
4162,14199365.10579826
4210,21027168.503030987
4236,0.0
4348,0.0
4473,0.0
2,3, 1, 3, 0, 1, 0.00,60.00,Saturday
11,68035584.28827363
47,24156278.99999996
71,4835078.999999999
346,19321199.999999968
993,18722069.99999997
1017,18722069.99999997
1497,1327875.7219713766
1533,0.0
1557,0.0
2228,2499528.842863284
2366,1327875.7219713766
4114,22657706.445410395
4126,8458341.339612136
4162,14199365.10579826
4210,0.0
4236,0.0
4348,0.0
4473,0.0
2,3, 1, 3, 0, 2, 0.00,60.00,Saturday
11,68200787.94817597
47,24156278.99999996
71,4835078.999999999
346,19321199.999999968
993,18722069.99999997
1017,18722069.99999997
1497,5555351.1938403309
1533,0.0
1557,0.0
2228,2477645.4123554315
2366,1325824.5663519912
4114,22844793.53582058
4126,8458341.339612136
4162,14199365.10579826
4210,0.0
4236,4229526.627488339
4348,0.0
4473,0.0
2,3, 1, 3, 0, 3, 0.00,60.00,Saturday
11,68398771.76057938
47,24156278.99999996
71,4835078.999999999
346,19321199.999999968
993,18722069.99999997
1017,18722069.99999997
1497,29315246.049331838
1533,0.0
1557,0.0
2228,1624057.564640888
2366,1312588.4031564168
4114,23896365.195938536
4126,8458341.339612136
4162,14199365.10579826
4210,0.0
4236,28002657.64617542
4348,0.0
4473,0.0
2,3, 1, 3, 0, 4, 0.00,60.00,Saturday
11,69158205.2523403
47,24156278.99999996
71,4835078.999999999
346,19321199.999999968
993,18722069.99999997
1017,18722069.99999997
1497,64866412.45268068
1533,0.0
1557,0.0
2228,798859.3091055772
2366,1039587.073920749
4114,25480996.94323477
4126,8458341.339612136
4162,14199365.10579826
4210,0.0
4236,63826825.37875992
4348,0.0
4473,0.0
2,3, 1, 3, 0, 5, 0.00,60.00,Saturday
11,71431748.23758684
47,24156278.99999996
71,4835078.999999999
346,19321199.999999968
993,18722069.99999997
1017,18722069.99999997
1497,98301878.35603562
1533,0.0
1557,0.0
2228,1597530.75925415
2366,1132272.5083091439
4114,26955868.47833275
4126,8458341.339612136
4162,14199365.10579826
4210,0.0
4236,97169605.84772647
4348,0.0
4473,0.0
2,3, 1, 3, 0, 6, 0.00,60.00,Saturday
11,179060499.23304678
47,52754678.99999992
71,4835078.999999999
346,47919599.99999992
993,47320469.999999929
1017,47320469.999999929
1497,93652745.01911304
1533,0.0
1557,0.0
2228,798852.3728943314
2366,1214860.0523421914
4114,28778727.923996614
4126,10490501.918585619
4162,14199365.10579826
4210,49407769.9361559
4236,92437884.96677086
4348,0.0
4473,0.0
2,3, 1, 3, 0, 7, 0.00,60.00,Saturday
11,270711998.95840308
47,80361638.99999988
71,5971238.999999999
346,74390399.99999988
993,69320069.9999999
1017,69320069.9999999
1497,1221108241.069942
1533,28597212.921243654
1557,28597212.921243654
2228,1610849.9879149667
2366,1265804.0103823357
4114,69004372.2426202
4126,21823177.016115879
4162,14199365.105798258
4210,49484794.292663577
4236,1191245224.1383162
4348,0.0
4473,930273.4352045342
2,3, 1, 3, 0, 8, 0.00,60.00,Saturday
11,262295026.17450956
47,83800926.72033109
71,9410526.72033122
346,74390399.99999988
993,73192139.99999988
1017,73192139.99999988
1497,871983304.3182943
1533,28597212.921243654
1557,28597212.921243654
2228,4211069.797375236
2366,1748972.682658234
4114,51126115.72070884
4126,16521807.599836965
4162,14199365.10579826
4210,49482826.23799276
4236,841637118.7143924
4348,0.0
4473,481947.69810172347
2,3, 1, 3, 0, 9, 0.00,60.00,Saturday
11,290435494.6890062
47,100676854.6363982
71,26286454.63639835
346,74390399.99999988
993,90883619.99999987
1017,90883619.99999987
1497,627712076.0673847
1533,285108.16507584266
1557,285108.16507584266
2228,5004206.56237766
2366,2045515.6057029386
4114,43961193.14265053
4126,16519577.605455209
4162,14199365.10579826
4210,49553265.69398759
4236,625381452.296606
4348,0.0
4473,356354.65359236768
2,3, 1, 3, 0,10, 0.00,60.00,Saturday
11,325432869.27561846
47,118178927.11860773
71,43788527.11860786
346,74390399.99999988
993,114116039.99999988
1017,114116039.99999988
1497,436446300.60109189
1533,285108.16507584266
1557,285108.16507584266
2228,4829483.190124698
2366,2412811.9603548205
4114,38927316.35327693
4126,16563811.902790189
4162,14199365.10579826
4210,49109170.6416762
4236,433748380.4756612
4348,0.0
4473,271931.9719329865
2,3, 1, 3, 0,11, 0.00,60.00,Saturday
11,307961860.33505699
47,116782230.60511342
71,63840630.60511344
346,52941599.9999999
993,115899659.99999997
1017,115899659.99999997
1497,333648863.05129459
1533,513194.69713651677
1557,513194.69713651677
2228,9081938.15428187
2366,2824942.3886144619
4114,36975846.18019795
4126,16654897.489290879
4162,14199365.105798258
4210,28994292.25648931
4236,330310725.9655436
4348,0.0
4473,227893.13897453037
2,3, 1, 3, 0,12, 0.00,60.00,Saturday
11,293777136.8404251
47,116857152.56278825
71,63915552.56278825
346,52941599.9999999
993,115899659.99999997
1017,115899659.99999997
1497,252437398.259898
1533,11952079.865633984
1557,11952079.865633984
2228,10565653.455641879
2366,3373700.0245152779
4114,35013174.8275444
4126,16913748.33255469
4162,14199365.10579826
4210,15231986.178029875
4236,237111618.3697487
4348,0.0
4473,209509.8164208084
2,3, 1, 3, 0,13, 0.00,60.00,Saturday
11,285487204.18578329
47,113517647.93950053
71,60576047.93950054
346,52941599.9999999
993,114247259.99999997
1017,114247259.99999997
1497,196559756.28980295
1533,11952079.865633984
1557,11952079.865633984
2228,11604222.254285966
2366,3683611.3175245805
4114,33783955.86994578
4126,16983751.457766564
4162,14199365.10579826
4210,11830283.034787933
4236,180924065.10664437
4348,300215.38661789378
4473,203619.70064535854
2,3, 1, 3, 0,14, 0.00,60.00,Saturday
11,286502903.2129302
47,113180799.84266123
71,60239199.84266125
346,52941599.9999999
993,114247259.99999997
1017,114247259.99999997
1497,158501992.82354293
1533,513194.69713651677
1557,513194.69713651677
2228,12659330.863906093
2366,3698528.882388014
4114,33346264.257937015
4126,17094024.18442322
4162,14199365.10579826
4210,11521269.288535366
4236,154290269.2440184
4348,1345931.7422819229
4473,202047.217608621
2,3, 1, 3, 0,15, 0.00,60.00,Saturday
11,284104141.55489137
47,113162497.29354179
71,60220897.29354182
346,52941599.9999999
993,114247259.99999997
1017,114247259.99999997
1497,124854904.4659985
1533,427662.2476137639
1557,427662.2476137639
2228,9783261.577595994
2366,3054532.486962226
4114,33364285.563232256
4126,17565219.236754367
4162,14199365.10579826
4210,11218796.451871284
4236,121372709.73142252
4348,2127942.2445946808
4473,200098.42405541813
2,3, 1, 3, 0,16, 0.00,60.00,Saturday
11,283041369.8183875
47,113409630.97942034
71,60468030.97942036
346,52941599.9999999
993,114247259.99999997
1017,114247259.99999997
1497,103563380.70969269
1533,427662.2476137639
1557,427662.2476137639
2228,9451037.66932942
2366,3009626.1077118266
4114,33291110.632720114
4126,17869749.538439439
4162,14199365.10579826
4210,10844531.225539212
4236,100126092.3543671
4348,1598801.448328042
4473,198997.86305044688
2,3, 1, 3, 0,17, 0.00,60.00,Saturday
11,286469205.17373326
47,118452784.37378162
71,65511184.373781647
346,52941599.9999999
993,114247259.99999997
1017,114247259.99999997
1497,141684899.94491387
1533,29024875.168857416
1557,29024875.168857416
2228,9106530.442331968
2366,3007237.609721448
4114,33278458.272765437
4126,17967776.99464093
4162,14199365.10579826
4210,11085272.558144218
4236,109652787.16633502
4348,99685.71189521293
4473,199213.81481488417
2,3, 1, 3, 0,18, 0.00,60.00,Saturday
11,279801181.31473216
47,111937382.99999996
71,64017782.99999998
346,47919599.99999992
993,113145659.99999997
1017,113145659.99999997
1497,183675036.8606738
1533,28597212.921243654
1557,28597212.921243654
2228,9277072.43192906
2366,2931653.576057735
4114,33400350.914054946
4126,17356538.694379186
4162,14199365.10579826
4210,11839308.375739938
4236,152146170.3633724
4348,0.0
4473,201406.5930083096
2,3, 1, 3, 0,19, 0.00,60.00,Saturday
11,309349914.2126608
47,128942549.99999987
71,38125349.999999988
346,90817199.99999984
993,125066699.99999988
1017,125066699.99999988
1497,194401811.07098253
1533,28597212.921243654
1557,28597212.921243654
2228,9295195.862981156
2366,2784513.358965337
4114,31540764.917378367
4126,16519639.216955986
4162,14199365.10579826
4210,14297596.456260566
4236,163020084.7907735
4348,0.0
4473,207106.9760409608
2,3, 1, 3, 0,20, 0.00,60.00,Saturday
11,317197214.9079918
47,142745273.9999998
71,23329673.999999994
346,119415599.9999998
993,138176819.9999998
1017,138176819.9999998
1497,175376898.7693806
1533,0.0
1557,0.0
2228,7178884.790971948
2366,2330041.0117282189
4114,28853739.980966703
4126,14487417.026481724
4162,14199365.10579826
4210,30306.60309226712
4236,173046857.75765235
4348,0.0
4473,212189.5329612795
2,3, 1, 3, 0,21, 0.00,60.00,Saturday
11,344144669.52332249
47,157044473.99999977
71,23329673.999999994
346,133714799.99999979
993,152476019.99999977
1017,152476019.99999977
1497,204893266.6279427
1533,0.0
1557,0.0
2228,5612966.910843876
2366,2284072.8447104
4114,28755873.022774284
4126,14487417.026481724
4162,14199365.10579826
4210,36087.48177254338
4236,202609193.7832323
4348,0.0
4473,219248.10793208486
2,3, 1, 3, 0,22, 0.00,60.00,Saturday
11,284265986.96506479
47,127949597.9999998
71,8533997.999999999
346,119415599.9999998
993,122688539.9999998
1017,122688539.9999998
1497,273782948.0083844
1533,0.0
1557,0.0
2228,4167001.372447795
2366,1709325.9716516336
4114,29161917.293796969
4126,14487417.026481724
4162,14199365.10579826
4210,49280.3880883727