Program Version,EnergyPlus, Version 9.0.1-bb7ca4f0da, YMD=2019.12.18 15:40
1,5,Environment Title[],Latitude[deg],Longitude[deg],Time Zone[],Elevation[m]
2,8,Day of Simulation[],Month[],Day of Month[],DST Indicator[1=yes 0=no],Hour[],StartMinute[],EndMinute[],DayType
3,5,Cumulative Day of Simulation[],Month[],Day of Month[],DST Indicator[1=yes 0=no],DayType  ! When Daily Meters Requested
4,2,Cumulative Days of Simulation[],Month[]  ! When Monthly Meters Requested
5,1,Cumulative Days of Simulation[] ! When Run Period Meters Requested
6,1,Calendar Year of Simulation[] ! When Annual Meters Requested
47,1,InteriorLights:Electricity [J] !Hourly
11,1,Electricity:Facility [J] !Hourly
993,1,InteriorEquipment:Electricity [J] !Hourly
4122,1,Fans:Electricity [J] !Hourly
4480,1,Pumps:Electricity [J] !Hourly
4244,1,Heating:Electricity [J] !Hourly
4355,1,Cooling:Electricity [J] !Hourly
2228,1,WaterSystems:Electricity [J] !Hourly
1497,1,Gas:Facility [J] !Hourly
1533,1,InteriorEquipment:Gas [J] !Hourly
4231,1,Heating:Gas [J] !Hourly
2366,1,WaterSystems:Gas [J] !Hourly
1017,1,Receptacle:InteriorEquipment:Electricity [J] !Hourly
1557,1,Receptacle:InteriorEquipment:Gas [J] !Hourly
71,1,ComplianceLtg:InteriorLights:Electricity [J] !Hourly
346,1,NonComplianceLtg:InteriorLights:Electricity [J] !Hourly
4134,1,General:Fans:Electricity [J] !Hourly
4171,1,ProcessMotors:Fans:Electricity [J] !Hourly
End of Data Dictionary
1,OAKLAND_724930_CZ2010,  37.72,-122.22,  -8.00,   2.00
2,1, 1, 1, 0, 1, 0.00,60.00,Holiday
11,55710943.844908777
47,24156278.99999996
71,4835078.999999999
346,19321199.999999968
993,18722069.99999997
1017,18722069.99999997
1497,1042651.786822372
1533,0.0
1557,0.0
2228,799457.8812930653
2366,1042651.786822372
4122,12033136.963615733
4134,8488078.333418435
4171,3545058.6301972984
4231,0.0
4244,0.0
4355,0.0
4480,0.0
2,1, 1, 1, 0, 2, 0.00,60.00,Holiday
11,56510259.28008966
47,24156278.99999996
71,4835078.999999999
346,19321199.999999968
993,18722069.99999997
1017,18722069.99999997
1497,1042773.3556239077
1533,0.0
1557,0.0
2228,1598773.3164739595
2366,1042773.3556239077
4122,12033136.963615733
4134,8488078.333418435
4171,3545058.6301972984
4231,0.0
4244,0.0
4355,0.0
4480,0.0
2,1, 1, 1, 0, 3, 0.00,60.00,Holiday
11,56510068.2969825
47,24156278.99999996
71,4835078.999999999
346,19321199.999999968
993,18722069.99999997
1017,18722069.99999997
1497,1303444.7020435145
1533,0.0
1557,0.0
2228,1598582.3333667885
2366,1303444.7020435145
4122,12033136.963615733
4134,8488078.333418435
4171,3545058.6301972984
4231,0.0
4244,0.0
4355,0.0
4480,0.0
2,1, 1, 1, 0, 4, 0.00,60.00,Holiday
11,56496789.05287872
47,24156278.99999996
71,4835078.999999999
346,19321199.999999968
993,18722069.99999997
1017,18722069.99999997
1497,1037338.0887808107
1533,0.0
1557,0.0
2228,1585303.0892630229
2366,1037338.0887808107
4122,12033136.963615733
4134,8488078.333418435
4171,3545058.6301972984
4231,0.0
4244,0.0
4355,0.0
4480,0.0
2,1, 1, 1, 0, 5, 0.00,60.00,Holiday
11,55704111.31711984
47,24156278.99999996
71,4835078.999999999
346,19321199.999999968
993,18722069.99999997
1017,18722069.99999997
1497,1037576.7929839178
1533,0.0
1557,0.0
2228,792625.3535041347
2366,1037576.7929839178
4122,12033136.963615733
4134,8488078.333418435
4171,3545058.6301972984
4231,0.0
4244,0.0
4355,0.0
4480,0.0
2,1, 1, 1, 0, 6, 0.00,60.00,Holiday
11,115586775.01841317
47,52754678.99999992
71,4835078.999999999
346,47919599.99999992
993,47320469.999999929
1017,47320469.999999929
1497,26829560.891510406
1533,0.0
1557,0.0
2228,1585533.1241613976
2366,1305584.020455875
4122,13888997.226207348
4134,10343938.59601005
4171,3545058.6301972984
4231,25523976.871054528
4244,4569.8157604260309
4355,0.0
4480,32525.852284036875
2,1, 1, 1, 0, 7, 0.00,60.00,Holiday
11,170162793.93854857
47,74203478.99999988
71,4835078.999999999
346,69368399.9999999
993,68769269.9999999
1017,68769269.9999999
1497,264046996.75523646
1533,28597212.921243654
1557,28597212.921243654
2228,1598856.3402061356
2366,1042766.0406318577
4122,25554248.503265315
4134,13944504.580454503
4171,3545058.6301972984
4231,234407017.79336096
4244,4193.454270669575
4355,0.0
4480,32746.640806567862
2,1, 1, 1, 0, 8, 0.00,60.00,Holiday
11,167155795.04522489
47,74200608.60198428
71,4832208.601984404
346,69368399.9999999
993,68769269.9999999
1017,68769269.9999999
1497,182458093.33938039
1533,28597212.921243654
1557,28597212.921243654
2228,1639469.7382712034
2366,1323251.1645437638
4122,22509377.10686433
4134,14137256.937444509
4171,3545058.6301972984
4231,152537629.25359298
4244,4670.509278686601
4355,0.0
4480,32399.088826389656
2,1, 1, 1, 0, 9, 0.00,60.00,Holiday
11,185158128.47851438
47,77865889.21631558
71,8497489.216315713
346,69368399.9999999
993,72641339.99999988
1017,72641339.99999988
1497,487177471.85615828
1533,0.0
1557,0.0
2228,2502186.6712750939
2366,1336864.722544644
4122,31015786.551118606
4134,23576276.518942719
4171,3545058.6301972984
4231,485840607.13361367
4244,84959.5443135735
4355,0.0
4480,1047966.4954915204
2,1, 1, 1, 0,10, 0.00,60.00,Holiday
11,177771737.2545706
47,77826450.95352715
71,8458050.95352728
346,69368399.9999999
993,72641339.99999988
1017,72641339.99999988
1497,363089502.65040436
1533,0.0
1557,0.0
2228,3395275.989118209
2366,1350392.3422625382
4122,23685125.631286205
4134,16469485.57477368
4171,3545058.6301972984
4231,361739110.3081418
4244,55203.24206218865
4355,0.0
4480,168341.43857682023
2,1, 1, 1, 0,11, 0.00,60.00,Holiday
11,182879763.1827118
47,78180106.1888814
71,30260506.18888143
346,47919599.99999992
993,74424959.99999996
1017,74424959.99999996
1497,301922297.52743729
1533,0.0
1557,0.0
2228,5873846.5958356219
2366,2049062.8498658718
4122,24322958.315528394
4134,16344628.454077198
4171,3545058.6301972984
4231,299873234.6775714
4244,34965.8822589579
4355,0.0
4480,42926.20020746162
2,1, 1, 1, 0,12, 0.00,60.00,Holiday
11,182360622.63537605
47,78099094.36329484
71,30179494.363294875
346,47919599.99999992
993,74424959.99999996
1017,74424959.99999996
1497,281492178.922029
1533,11438885.168497468
1557,11438885.168497468
2228,5996708.29290103
2366,2380305.949073296
4122,23775720.475005296
4134,16344628.454077198
4171,3545058.6301972984
4231,267672987.80445827
4244,30850.19929354203
4355,0.0
4480,33289.30488131745
2,1, 1, 1, 0,13, 0.00,60.00,Holiday
11,209988458.2520867
47,89011518.37661559
71,41091918.37661559
346,47919599.99999992
993,89913239.99999997
1017,89913239.99999997
1497,242723496.83919127
1533,11438885.168497468
1557,11438885.168497468
2228,7381024.077146433
2366,2423356.5255134615
4122,23630553.210175046
4134,16344628.454077198
4171,3545058.6301972984
4231,228861255.1451803
4244,23452.07770008149
4355,0.0
4480,28670.51044955492
2,1, 1, 1, 0,14, 0.00,60.00,Holiday
11,209646890.7645812
47,89110754.24198337
71,41191154.241983387
346,47919599.99999992
993,89913239.99999997
1017,89913239.99999997
1497,199527241.3802569
1533,0.0
1557,0.0
2228,7381784.913092326
2366,2461130.0230232456
4122,23193180.064892994
4134,16344628.454077198
4171,3545058.6301972984
4231,197066111.35723365
4244,19805.380416267424
4355,0.0
4480,28126.16419624862
2,1, 1, 1, 0,15, 0.00,60.00,Holiday
11,208387348.67173846
47,89163584.23438885
71,41243984.23438886
346,47919599.99999992
993,89913239.99999997
1017,89913239.99999997
1497,176292761.15304984
1533,0.0
1557,0.0
2228,6360000.809560115
2366,2150483.2067366328
4122,22905335.391978317
4134,16344628.454077198
4171,3545058.6301972984
4231,174142277.94631318
4244,17060.86849899996
4355,0.0
4480,28127.367312163096
2,1, 1, 1, 0,16, 0.00,60.00,Holiday
11,208419633.82356168
47,89062012.1973739
71,41142412.19737391
346,47919599.99999992
993,89913239.99999997
1017,89913239.99999997
1497,155960264.5207113
1533,0.0
1557,0.0
2228,7128570.821433125
2366,2423530.168585568
4122,22271280.341332605
4134,16344628.454077198
4171,3545058.6301972984
4231,153536734.35212577
4244,16314.057810551218
4355,0.0
4480,28216.405611539238
2,1, 1, 1, 0,17, 0.00,60.00,Holiday
11,209243199.26800166
47,89627792.82797772
71,41708192.827977757
346,47919599.99999992
993,89913239.99999997
1017,89913239.99999997
1497,190026522.8211684
1533,28597212.921243654
1557,28597212.921243654
2228,7462680.573315249
2366,2451308.3809597629
4122,22193716.2524852
4134,16344628.454077198
4171,3545058.6301972984
4231,158978001.51896499
4244,17704.521180825068
4355,0.0
4480,28065.093042628898
2,1, 1, 1, 0,18, 0.00,60.00,Holiday
11,183153760.95921243
47,78647111.99999994
71,30727511.99999999
346,47919599.99999992
993,74424959.99999996
1017,74424959.99999996
1497,248793738.4206743
1533,28597212.921243654
1557,28597212.921243654
2228,7221719.856634874
2366,2204202.908235687
4122,22805293.581774925
4134,16344628.454077198
4171,3545058.6301972984
4231,217992322.591195
4244,25532.345519485647
4355,0.0
4480,29143.17528321339
2,1, 1, 1, 0,19, 0.00,60.00,Holiday
11,231898898.0365472
47,106749035.99999982
71,15931835.999999995
346,90817199.99999984
993,101834279.99999984
1017,101834279.99999984
1497,207965464.19777987
1533,28597212.921243654
1557,28597212.921243654
2228,4702378.169142889
2366,1912417.1663588198
4122,18550902.547559978
4134,14488768.191485579
4171,3545058.6301972984
4231,177455834.1101774
4244,30295.044596303775
4355,0.0
4480,32006.275248264763
2,1, 1, 1, 0,20, 0.00,60.00,Holiday
11,260889080.45310033
47,124250678.9999998
71,4835078.999999999
346,119415599.9999998
993,118816469.99999982
1017,118816469.99999982
1497,2831467.209734096
1533,0.0
1557,0.0
2228,5756569.112827316
2366,2026481.0962557365
4122,12065362.340273217
4134,8488078.333418435
4171,3545058.6301972984
4231,804986.11347836
4244,0.0
4355,0.0
4480,0.0
2,1, 1, 1, 0,21, 0.00,60.00,Holiday
11,288064835.55016037
47,138549878.9999998
71,4835078.999999999
346,133714799.99999979
993,133115669.99999979
1017,133115669.99999979
1497,2258142.6173873257
1533,0.0
1557,0.0
2228,4343048.331653965
2366,1681066.1953271628
4122,12056238.218506638
4134,8488078.333418435
4171,3545058.6301972984
4231,577076.422060163
4244,0.0
4355,0.0
4480,0.0
2,1, 1, 1, 0,22, 0.00,60.00,Holiday
11,257905864.22478024
47,124250678.9999998
71,4835078.999999999
346,119415599.9999998
993,118816469.99999982
1017,118816469.99999982
1497,2626403.4789272497
1533,0.0
1557,0.0
2228,2766434.54027702
2366,1648623.0813172297
4122,12072280.684503438
4134,8488078.333418435
4171,3545058.6301972984
4231,977780.3976100199
4244,0.0
4355,0.0
4480,0.0
2,1, 1, 1, 0,23, 0.00,60.00,Holiday
11,200362901.0526179
47,95652278.99999984
71,4835078.999999999
346,90817199.99999984
993,90218069.99999985
1017,90218069.99999985
1497,1323208.2817424928
1533,0.0
1557,0.0
2228,2459415.0890023575
2366,1323208.2817424928
4122,12033136.963615733
4134,8488078.333418435
4171,3545058.6301972984
4231,0.0
4244,0.0
4355,0.0
4480,0.0
2,1, 1, 1, 0,24, 0.00,60.00,Holiday
11,113418556.8146186
47,52754678.99999992
71,4835078.999999999
346,47919599.99999992
993,47320469.999999929
1017,47320469.999999929
1497,1037752.908387355
1533,0.0
1557,0.0
2228,1310270.8510028977
2366,1037752.908387355
4122,12033136.963615733
4134,8488078.333418435
4171,3545058.6301972984
4231,0.0
4244,0.0
4355,0.0
4480,0.0
2,2, 1, 2, 0, 1, 0.00,60.00,Friday
11,55961756.15534893
47,24156278.99999996
71,4835078.999999999
346,19321199.999999968
993,18722069.99999997
1017,18722069.99999997
1497,1029513.9070992924
1533,0.0
1557,0.0
2228,1050270.191733235
2366,1029513.9070992924
4122,12033136.963615733
4134,8488078.333418435
4171,3545058.6301972984
4231,0.0
4244,0.0
4355,0.0
4480,0.0
2,2, 1, 2, 0, 2, 0.00,60.00,Friday
11,55697757.87606014
47,24156278.99999996
71,4835078.999999999
346,19321199.999999968
993,18722069.99999997
1017,18722069.99999997
1497,1034716.0076070237
1533,0.0
1557,0.0
2228,786271.912444435
2366,1034716.0076070237
4122,12033136.963615733
4134,8488078.333418435
4171,3545058.6301972984
4231,0.0
4244,0.0
4355,0.0
4480,0.0
2,2, 1, 2, 0, 3, 0.00,60.00,Friday
11,55706627.374443639
47,24156278.99999996
71,4835078.999999999
346,19321199.999999968
993,18722069.99999997
1017,18722069.99999997
1497,1255785.0121250114
1533,0.0
1557,0.0
2228,786297.8621851028
2366,1034873.4624201511
4122,12041980.512258562
4134,8488078.333418435
4171,3545058.6301972984
4231,220911.54970486024
4244,0.0
4355,0.0
4480,0.0
2,2, 1, 2, 0, 4, 0.00,60.00,Friday
11,56601277.06375497
47,24156278.99999996
71,4835078.999999999
346,19321199.999999968
993,18722069.99999997
1017,18722069.99999997
1497,4497864.861534189
1533,0.0
1557,0.0
2228,1559751.1838309915
2366,1029891.6166859176
4122,12163176.87992401
4134,8488078.333418435
4171,3545058.6301972984
4231,3467973.2448482725
4244,0.0
4355,0.0
4480,0.0
2,2, 1, 2, 0, 5, 0.00,60.00,Friday
11,59989257.86807871
47,24156278.99999996
71,4835078.999999999
346,19321199.999999968
993,18722069.99999997
1017,18722069.99999997
1497,15062908.615081553
1533,0.0
1557,0.0
2228,779921.628756074
2366,1029912.4056279641
4122,16312896.187650649
4134,12278254.866726784
4171,3545058.6301972984
4231,14032996.209453589
4244,120.280627516617
4355,0.0
4480,17970.771044497753
2,2, 1, 2, 0, 6, 0.00,60.00,Friday
11,125406562.47912586
47,53890838.99999992
71,5971238.999999999
346,47919599.99999992
993,47871269.999999929
1017,47871269.999999929
1497,204904213.91787244
1533,0.0
1557,0.0
2228,779884.4802049832
2366,1295230.8240847465
4122,21908494.35065211
4134,18021724.588140318
4171,3545058.630197298
4231,203608983.09378768
4244,38169.68232889321
4355,618767.6929160636
4480,299137.2730238419
2,2, 1, 2, 0, 7, 0.00,60.00,Friday
11,200688570.95191438
47,80361638.99999988
71,5971238.999999999
346,74390399.99999988
993,69320069.9999999
1017,69320069.9999999
1497,1066163712.5512897
1533,28597212.921243654
1557,28597212.921243654
2228,779959.744395643
2366,1034060.4648531324
4122,48207885.54560436
4134,25627904.411285245
4171,3545058.6301972984
4231,1036532439.1651929
4244,123423.46257957036
4355,0.0
4480,1895593.1993349239
2,2, 1, 2, 0, 8, 0.00,60.00,Friday
11,214471934.83552129
47,95991532.16376847
71,21601132.163768598
346,74390399.99999988
993,83139479.99999988
1017,83139479.99999988
1497,713434817.6411604
1533,28882321.086319496
1557,28882321.086319496
2228,3426129.7290822046
2366,1686204.025478437
4122,31232874.089972486
4134,16550058.699623455
4171,3545058.6301972984
4231,682866292.5293624
4244,89377.91614066817
4355,0.0
4480,592540.9365574801
2,2, 1, 2, 0, 9, 0.00,60.00,Friday
11,272094456.1755978
47,125950306.21617292
71,51559906.216173049
346,74390399.99999988
993,112981499.99999987
1017,112981499.99999987
1497,504433850.4074372
1533,285108.16507584266
1557,285108.16507584266
2228,4615721.395251051
2366,2444647.797789975
4122,28361015.46213586
4134,16345196.1787547
4171,3545058.6301972984
4231,501704094.4445714
4244,59192.42301306593
4355,0.0
4480,126720.67902485683
2,2, 1, 2, 0,10, 0.00,60.00,Friday
11,327979836.73588868
47,151016199.23281855
71,76625799.23281859
346,74390399.99999988
993,143958059.99999995
1017,143958059.99999995
1497,383909670.720474
1533,285108.16507584266
1557,285108.16507584266
2228,6065895.419253938
2366,2890281.540324604
4122,26850904.845482645
4134,16397120.141887814
4171,3545058.630197298
4231,380734281.01507356
4244,38999.52294650102
4355,0.0
4480,49777.715387113305
2,2, 1, 2, 0,11, 0.00,60.00,Friday
11,287010150.98417666
47,128511487.69860499
71,75569887.69860502
346,52941599.9999999
993,122509259.99999996
1017,122509259.99999996
1497,390581189.33556237
1533,513194.69713651677
1557,513194.69713651677
2228,8431941.900919328
2366,3147172.9914016125
4122,27476141.375008264
4134,16398580.597280737
4171,3545058.6301972984
4231,386920821.64702418
4244,36504.67353661025
4355,0.0
4480,44815.33610745823
2,2, 1, 2, 0,12, 0.00,60.00,Friday
11,289660018.6493618
47,128753614.52573964
71,75812014.52573966
346,52941599.9999999
993,122509259.99999996
1017,122509259.99999996
1497,359472299.64636829
1533,11952079.865633984
1557,11952079.865633984
2228,11612029.814961305
2366,3963330.5210193649
4122,26715330.77427039
4134,16586943.01573214
4171,3545058.6301972984
4231,343556889.25971499
4244,32261.57488489001
4355,0.0
4480,37521.95950565017
2,2, 1, 2, 0,13, 0.00,60.00,Friday
11,285474656.887015
47,126635535.36213184
71,73693935.36213187
346,52941599.9999999
993,122509259.99999996
1017,122509259.99999996
1497,279289847.95255538
1533,11952079.865633984
1557,11952079.865633984
2228,11890194.017046906
2366,4627632.109071492
4122,24379605.911041529
4134,16620598.2292687
4171,3545058.6301972984
4231,262710135.9778499
4244,28036.97414330869
4355,0.0
4480,32024.622651456695
2,2, 1, 2, 0,14, 0.00,60.00,Friday
11,285736136.63002929
47,127085063.96226895
71,74143463.96226897
346,52941599.9999999
993,122509259.99999996
1017,122509259.99999996
1497,211222866.8816563
1533,513194.69713651677
1557,513194.69713651677
2228,12861196.240658498
2366,4251148.359311954
4122,23228631.52371513
4134,16676492.263220815
4171,3545058.6301972984
4231,206458523.82520784
4244,23041.056573276794
4355,0.0
4480,28943.846813521
2,2, 1, 2, 0,15, 0.00,60.00,Friday
11,283081760.58258816
47,127508596.39647734
71,74566996.39647736
346,52941599.9999999
993,122509259.99999996
1017,122509259.99999996
1497,196254786.2148449
1533,427662.2476137639
1557,427662.2476137639
2228,10150564.208389026
2366,3616814.661288983
4122,22862325.95599369
4134,16726501.550025424
4171,3545058.6301972984
4231,192210309.30594219
4244,22336.325140890014
4355,0.0
4480,28677.696587222526
2,2, 1, 2, 0,16, 0.00,60.00,Friday
11,277754751.8514169
47,125070133.52972892
71,72128533.52972894
346,52941599.9999999
993,122509259.99999996
1017,122509259.99999996
1497,160382941.1528033
1533,427662.2476137639
1557,427662.2476137639
2228,8484243.885771199
2366,3136961.4185505628
4122,21640216.327811008
4134,16923248.98290617
4171,3545058.6301972984
4231,156818317.48663897
4244,22193.7322335001
4355,0.0
4480,28704.375872294164
2,2, 1, 2, 0,17, 0.00,60.00,Friday
11,282540438.9904111
47,129184810.27662225
71,76243210.2766223
346,52941599.9999999
993,122509259.99999996
1017,122509259.99999996
1497,188606566.74436204
1533,29024875.168857416
1557,29024875.168857416
2228,9223673.7213132
2366,3625695.135107179
4122,21571414.865907924
4134,16943242.555250106
4171,3545058.6301972984
4231,155955996.44039745
4244,22478.397885858678
4355,0.0
4480,28801.728681900335
2,2, 1, 2, 0,18, 0.00,60.00,Friday
11,273854109.2915016
47,123776342.99999996
71,70834742.99999997
346,52941599.9999999
993,118102859.99999997
1017,118102859.99999997
1497,236396723.8920436
1533,29024875.168857416
1557,29024875.168857416
2228,9606544.977738923
2366,3156790.783444315
4122,22310444.37653385
4134,16714078.329584448
4171,3545058.6301972984
4231,204215057.93974186
4244,27017.36214558428
4355,0.0
4480,30899.575083238076
2,2, 1, 2, 0,19, 0.00,60.00,Friday
11,308161459.33487316
47,143344268.99999986
71,47505068.99999999
346,95839199.99999984
993,135564839.99999989
1017,135564839.99999989
1497,217722352.80558289
1533,28597212.921243654
1557,28597212.921243654
2228,8643708.140524468
2366,2934339.784099083
4122,20540824.93945204
4134,16465554.00267019
4171,3545058.6301972984
4231,186190800.10024015
4244,32109.587947770327
4355,0.0
4480,35707.666949020466
2,2, 1, 2, 0,20, 0.00,60.00,Friday
11,362716804.5837148
47,171942668.99999974
71,47505068.99999999
346,124437599.9999998
993,164163239.99999974
1017,164163239.99999974
1497,178558067.1267804
1533,0.0
1557,0.0
2228,6548612.495281702
2366,2478398.601659866
4122,19993122.79584214
4134,16352478.90259414
4171,3545058.6301972984
4231,176079668.5251205
4244,32501.21775181278
4355,0.0
4480,36659.07483942984
2,2, 1, 2, 0,21, 0.00,60.00,Friday
11,377073774.59303686
47,180270629.9999997
71,41533829.999999988
346,138736799.9999998
993,169616699.99999974
1017,169616699.99999974
1497,195094298.1350819
1533,0.0
1557,0.0
2228,7147729.298256222
2366,2491264.4369105615
4122,19959256.400266265
4134,16344628.454077198
4171,3545058.6301972984
4231,192603033.69817133
4244,36480.66868130698
4355,0.0
4480,42978.225833386765
2,2, 1, 2, 0,22, 0.00,60.00,Friday
11,294568496.01869186
47,143777915.9999998
71,19340315.999999998
346,124437599.9999998
993,132085079.9999998
1017,132085079.9999998
1497,78433653.66821003
1533,0.0
1557,0.0
2228,4612640.091820202
2366,1988227.3064438895
4122,14051660.331787069
4134,10343938.59601005
4171,3545058.6301972984
4231,76445426.36176615
4244,12932.568244100792
4355,0.0
4480,28267.0268407384
2,2, 1, 2, 0,23, 0.00,60.00,Friday
11,204012815.33086009
47,96788438.99999984
71,5971238.999999999
346,90817199.99999984
993,90768869.99999985
1017,90768869.99999985
1497,80951496.62148127
1533,0.0
1557,0.0
2228,2524204.5902189204
2366,1346676.6301783256
4122,13888997.226207348
4134,10343938.59601005
4171,3545058.6301972984
4231,79604819.99130295
4244,14252.456145056198
4355,0.0
4480,28052.05828895217
2,2, 1, 2, 0,24, 0.00,60.00,Friday
11,115619033.81413631
47,52754678.99999992
71,4835078.999999999
346,47919599.99999992
993,47320469.999999929
1017,47320469.999999929
1497,82223135.06588412
1533,0.0
1557,0.0
2228,1612388.4194801055
2366,1312843.3567477815
4122,13888997.226207348
4134,10343938.59601005
4171,3545058.6301972984
4231,80910291.70913634
4244,14486.187951862172
4355,0.0
4480,28012.98049703795
2,3, 1, 3, 0, 1, 0.00,60.00,Saturday
11,57392323.46893036
47,24156278.99999996
71,4835078.999999999
346,19321199.999999968
993,18722069.99999997
1017,18722069.99999997
1497,1332807.3684663117
1533,0.0
1557,0.0
2228,2480837.505314661
2366,1332807.3684663117
4122,12033136.963615733
4134,8488078.333418435
4171,3545058.6301972984
4231,0.0
4244,0.0
4355,0.0
4480,0.0
2,3, 1, 3, 0, 2, 0.00,60.00,Saturday
11,56551139.1635907
47,24156278.99999996
71,4835078.999999999
346,19321199.999999968
993,18722069.99999997
1017,18722069.99999997
1497,1326095.2201390789
1533,0.0
1557,0.0
2228,1639653.199975004
2366,1326095.2201390789
4122,12033136.963615733
4134,8488078.333418435
4171,3545058.6301972984
4231,0.0
4244,0.0
4355,0.0
4480,0.0
2,3, 1, 3, 0, 3, 0.00,60.00,Saturday
11,56578383.19976975
47,24156278.99999996
71,4835078.999999999
346,19321199.999999968
993,18722069.99999997
1017,18722069.99999997
1497,2488693.123966454
1533,0.0
1557,0.0
2228,1612212.0629147548
2366,1050172.149981331
4122,12087822.136855029
4134,8488078.333418435
4171,3545058.6301972984
4231,1438520.973985123
4244,0.0
4355,0.0
4480,0.0
2,3, 1, 3, 0, 4, 0.00,60.00,Saturday
11,56825565.66684283
47,24156278.99999996
71,4835078.999999999
346,19321199.999999968
993,18722069.99999997
1017,18722069.99999997
1497,10268583.862820615
1533,0.0
1557,0.0
2228,1585493.3616691
2366,1299810.8999422293
4122,12361723.305173774
4134,8488078.333418435
4171,3545058.6301972984
4231,8968772.962878386
4244,0.0
4355,0.0
4480,0.0
2,3, 1, 3, 0, 5, 0.00,60.00,Saturday
11,57871034.9587643
47,24156278.99999996
71,4835078.999999999
346,19321199.999999968
993,18722069.99999997
1017,18722069.99999997
1497,38179873.05097384
1533,0.0
1557,0.0
2228,1585671.5570991606
2366,1039931.7413537165
4122,13407014.401665165
4134,8488078.333418435
4171,3545058.6301972984
4231,37139941.30962011
4244,0.0
4355,0.0
4480,0.0
2,3, 1, 3, 0, 6, 0.00,60.00,Saturday
11,122366261.73828213
47,52754678.99999992
71,4835078.999999999
346,47919599.99999992
993,47320469.999999929
1017,47320469.999999929
1497,256548506.59098459
1533,0.0
1557,0.0
2228,792909.2125385285
2366,1128100.1160489675
4122,21062446.480993134
4134,15625102.153145858
4171,3545058.630197298
4231,255420406.47493563
4244,40290.09487358357
4355,50921.437434785854
4480,344545.51244212608
2,3, 1, 3, 0, 7, 0.00,60.00,Saturday
11,208041163.16699554
47,80361638.99999988
71,5971238.999999999
346,74390399.99999988
993,69320069.9999999
1017,69320069.9999999
1497,1327404426.7970236
1533,28597212.921243654
1557,28597212.921243654
2228,1598876.864377528
2366,1230559.0216354505
4122,54661313.669520769
4134,24991480.30663828
4171,3545058.6301972984
4231,1297576654.8541446
4244,140863.68474473342
4355,0.0
4480,1958399.9483526727
2,3, 1, 3, 0, 8, 0.00,60.00,Saturday
11,199476648.32225538
47,83860253.48264241
71,9469853.482642539
346,74390399.99999988
993,73192139.99999988
1017,73192139.99999988
1497,952166557.4803106
1533,28597212.921243654
1557,28597212.921243654
2228,4483550.741692497
2366,1822255.7169326293
4122,36463194.46683479
4134,16661048.206236717
4171,3545058.6301972984
4231,921747088.8421341
4244,117201.43398877593
4355,0.0
4480,1360308.1970968955
2,3, 1, 3, 0, 9, 0.00,60.00,Saturday
11,228686462.5567217
47,100642018.34133214
71,26251618.341332277
346,74390399.99999988
993,90883619.99999987
1017,90883619.99999987
1497,739179152.0744895
1533,285108.16507584266
1557,285108.16507584266
2228,4657623.303899695
2366,2146681.0753884424
4122,31408358.511464329
4134,16354361.387761902
4171,3545058.6301972984
4231,736747362.8340253
4244,100873.66316084497
4355,0.0
4480,993968.7368646929
2,3, 1, 3, 0,10, 0.00,60.00,Saturday
11,264736497.76667143
47,117949742.33877564
71,43559342.33877577
346,74390399.99999988
993,114116039.99999988
1017,114116039.99999988
1497,503857046.88317
1533,285108.16507584266
1557,285108.16507584266
2228,5704791.772549103
2366,2182000.781989759
4122,26559919.903886755
4134,16397202.202651319
4171,3545058.6301972984
4231,501389937.93610438
4244,71314.01776348645
4355,0.0
4480,334689.7336963887
2,3, 1, 3, 0,11, 0.00,60.00,Saturday
11,264597358.49585886
47,116599545.1543282
71,63657945.15432821
346,52941599.9999999
993,115899659.99999997
1017,115899659.99999997
1497,345204832.77613046
1533,513194.69713651677
1557,513194.69713651677
2228,7971835.229856687
2366,2957549.8440569669
4122,23989120.79006836
4134,16476500.060663607
4171,3545058.630197298
4231,341734088.23493698
4244,47594.52271086998
4355,0.0
4480,89602.79889480378
2,3, 1, 3, 0,12, 0.00,60.00,Saturday
11,265784994.44165565
47,116592428.91550747
71,63650828.91550749
346,52941599.9999999
993,115899659.99999997
1017,115899659.99999997
1497,276023118.2825278
1533,11952079.865633984
1557,11952079.865633984
2228,10699478.026091746
2366,3596954.3539856446
4122,22504823.75535014
4134,16660679.471627679
4171,3545058.6301972984
4231,260474084.0629082
4244,38503.92349725715
4355,0.0
4480,50099.82120901535
2,3, 1, 3, 0,13, 0.00,60.00,Saturday
11,261475851.50839109
47,113148184.77195104
71,60206584.77195105
346,52941599.9999999
993,114247259.99999997
1017,114247259.99999997
1497,231605624.1933816
1533,11952079.865633984
1557,11952079.865633984
2228,12424309.473852544
2366,3609040.577167739
4122,21582315.0656119
4134,16731341.29077905
4171,3545058.6301972984
4231,216044503.7505799
4244,34031.071590186926
4355,0.0
4480,39751.12538544538
2,3, 1, 3, 0,14, 0.00,60.00,Saturday
11,260204554.6671294
47,113130024.12172708
71,60188424.12172711
346,52941599.9999999
993,114247259.99999997
1017,114247259.99999997
1497,195627201.21516378
1533,513194.69713651677
1557,513194.69713651677
2228,11584344.838625579
2366,3608356.805783511
4122,21176194.90278804
4134,16837087.691296258
4171,3545058.6301972984
4231,191505649.71224375
4244,31407.497652939062
4355,0.0
4480,35323.30633582266
2,3, 1, 3, 0,15, 0.00,60.00,Saturday
11,258443126.53630389
47,113119986.36583549
71,60178386.3658355
346,52941599.9999999
993,114247259.99999997
1017,114247259.99999997
1497,177933311.9505001
1533,427662.2476137639
1557,427662.2476137639
2228,9849130.604026355
2366,3221955.260697942
4122,21164753.710854453
4134,17117499.0589663
4171,3545058.6301972984
4231,174283694.44218839
4244,29176.027442695962
4355,0.0
4480,32819.82814490337
2,3, 1, 3, 0,16, 0.00,60.00,Saturday
11,258898541.96041895
47,113442830.99238713
71,60501230.992387149
346,52941599.9999999
993,114247259.99999997
1017,114247259.99999997
1497,149879521.49121655
1533,427662.2476137639
1557,427662.2476137639
2228,9722653.618227175
2366,3013516.6223110209
4122,21432133.997584456
4134,17509428.66974293
4171,3545058.6301972984
4231,146438342.62129174
4244,24195.27560170043
4355,0.0
4480,29468.076618511448
2,3, 1, 3, 0,17, 0.00,60.00,Saturday
11,264015859.6313494
47,118470868.19375496
71,65529268.19375498
346,52941599.9999999
993,114247259.99999997
1017,114247259.99999997
1497,184233446.56325937
1533,29024875.168857416
1557,29024875.168857416
2228,9600371.296979819
2366,3011018.992994119
4122,21643194.12215707
4134,17636901.631667314
4171,3545058.6301972984
4231,152197552.40140785
4244,24795.96255953204
4355,0.0
4480,29370.05589806959
2,3, 1, 3, 0,18, 0.00,60.00,Saturday
11,256134111.01035587
47,111937382.99999996
71,64017782.99999998
346,47919599.99999992
993,113145659.99999997
1017,113145659.99999997
1497,229291112.55731309
1533,28597212.921243654
1557,28597212.921243654
2228,9477355.219292118
2366,2813577.9690679868
4122,21506958.548717027
4134,17031860.368107276
4171,3545058.6301972984
4231,197880321.66700144
4244,31694.4508018481
4355,0.0
4480,35059.79154494279
2,3, 1, 3, 0,19, 0.00,60.00,Saturday
11,282362131.07775536
47,128942549.99999987
71,38125349.999999988
346,90817199.99999984
993,125066699.99999988
1017,125066699.99999988
1497,230548920.57955406
1533,28597212.921243654
1557,28597212.921243654
2228,8095138.964373487
2366,2697024.8445036418
4122,20177871.11547983
4134,16344628.4540772
4171,3545058.630197298
4231,199254682.81380678
4244,36454.02653193131
4355,0.0
4480,43416.97137029146
2,3, 1, 3, 0,20, 0.00,60.00,Saturday
11,306477725.1007122
47,142745273.9999998
71,23329673.999999994
346,119415599.9999998
993,138176819.9999998
1017,138176819.9999998
1497,167622170.45013098
1533,0.0
1557,0.0
2228,7381851.650062257
2366,2456170.5426714795
4122,18106540.96492959
4134,14488768.191485579
4171,3545058.630197298
4231,165165999.90745948
4244,30212.519055243305
4355,0.0
4480,37025.96666530664
2,3, 1, 3, 0,21, 0.00,60.00,Saturday
11,333750406.4921933
47,157044473.99999977
71,23329673.999999994
346,133714799.99999979
993,152476019.99999977
1017,152476019.99999977
1497,229126450.68928228
1533,0.0
1557,0.0
2228,5874053.117364823
2366,2064099.669579372
4122,18242451.295280909
4134,14488768.191485579
4171,3545058.6301972984
4231,227062351.0197029
4244,43757.25133853858
4355,0.0
4480,69650.82820925852
2,3, 1, 3, 0,22, 0.00,60.00,Saturday
11,274273628.5617814
47,127949597.9999998
71,8533997.999999999
346,119415599.9999998
993,122688539.9999998
1017,122688539.9999998