Program Version,EnergyPlus, Version 9.0.1-bb7ca4f0da, YMD=2019.12.18 16:06
1,5,Environment Title[],Latitude[deg],Longitude[deg],Time Zone[],Elevation[m]
2,8,Day of Simulation[],Month[],Day of Month[],DST Indicator[1=yes 0=no],Hour[],StartMinute[],EndMinute[],DayType
3,5,Cumulative Day of Simulation[],Month[],Day of Month[],DST Indicator[1=yes 0=no],DayType  ! When Daily Meters Requested
4,2,Cumulative Days of Simulation[],Month[]  ! When Monthly Meters Requested
5,1,Cumulative Days of Simulation[] ! When Run Period Meters Requested
6,1,Calendar Year of Simulation[] ! When Annual Meters Requested
46,1,InteriorLights:Electricity [J] !Hourly
4243,1,Heating:Electricity [J] !Hourly
1016,1,Receptacle:InteriorEquipment:Electricity [J] !Hourly
10,1,Electricity:Facility [J] !Hourly
992,1,InteriorEquipment:Electricity [J] !Hourly
4121,1,Fans:Electricity [J] !Hourly
4480,1,Pumps:Electricity [J] !Hourly
4354,1,Cooling:Electricity [J] !Hourly
2227,1,WaterSystems:Electricity [J] !Hourly
1496,1,Gas:Facility [J] !Hourly
1532,1,InteriorEquipment:Gas [J] !Hourly
4230,1,Heating:Gas [J] !Hourly
2365,1,WaterSystems:Gas [J] !Hourly
1556,1,Receptacle:InteriorEquipment:Gas [J] !Hourly
70,1,ComplianceLtg:InteriorLights:Electricity [J] !Hourly
345,1,NonComplianceLtg:InteriorLights:Electricity [J] !Hourly
4133,1,General:Fans:Electricity [J] !Hourly
4170,1,ProcessMotors:Fans:Electricity [J] !Hourly
End of Data Dictionary
1,FULLERTON-MUNICIPAL ANN CLG 0.4% CONDNS DB=>MCWB,  33.87,-117.98,  -8.00,  29.00
2,1, 8,21, 0, 1, 0.00,60.00,SummerDesignDay
10,694010465.1015041
46,249737579.99999974
70,96701579.99999997
345,153035999.9999997
992,231449399.99999977
1016,231449399.99999977
1496,63713264.42411844
1532,57764642.17263899
1556,57764642.17263899
2227,17561569.334318744
2365,5948622.251479449
4121,241.35489244193708
4133,40.395105456618868
4170,146.49394504991597
4230,0.0
4243,0.0
4354,195261674.41229297
4480,0.0
2,1, 8,21, 0, 2, 0.00,60.00,SummerDesignDay
10,687912660.9220688
46,249737579.99999974
70,96701579.99999997
345,153035999.9999997
992,231449399.99999977
1016,231449399.99999977
1496,64083999.15902549
1532,57764642.17263899
1556,57764642.17263899
2227,17562519.492654697
2365,6319356.986386504
4121,240.04020710054443
4133,40.40823127502618
4170,146.49394504991597
4230,0.0
4243,0.0
4354,189162921.38920719
4480,0.0
2,1, 8,21, 0, 3, 0.00,60.00,SummerDesignDay
10,683883063.8708433
46,249737579.99999974
70,96701579.99999997
345,153035999.9999997
992,231449399.99999977
1016,231449399.99999977
1496,63713534.35723373
1532,57764642.17263899
1556,57764642.17263899
2227,17561936.643994526
2365,5948892.184594746
4121,239.25089796454177
4133,40.41952279338176
4170,146.49394504991597
4230,0.0
4243,0.0
4354,185133907.9759509
4480,0.0
2,1, 8,21, 0, 4, 0.00,60.00,SummerDesignDay
10,680376581.5399749
46,249737579.99999974
70,96701579.99999997
345,153035999.9999997
992,231449399.99999977
1016,231449399.99999977
1496,64083943.161427628
1532,57764642.17263899
1556,57764642.17263899
2227,17562003.512214587
2365,6319300.988788626
4121,238.57686430363789
4133,40.42828634973687
4170,146.49394504991597
4230,0.0
4243,0.0
4354,181627359.45089624
4480,0.0
2,1, 8,21, 0, 5, 0.00,60.00,SummerDesignDay
10,677712798.3321726
46,249737579.99999974
70,96701579.99999997
345,153035999.9999997
992,231449399.99999977
1016,231449399.99999977
1496,63713585.42668591
1532,57764642.17263899
1556,57764642.17263899
2227,17703858.249015117
2365,5948943.254046916
4121,238.02119104497948
4133,40.43477118969544
4170,146.49394504991597
4230,0.0
4243,0.0
4354,178821722.06196628
4480,0.0
2,1, 8,21, 0, 6, 0.00,60.00,SummerDesignDay
10,696475299.8583582
46,249737579.99999974
70,96701579.99999997
345,153035999.9999997
992,231449399.99999977
1016,231449399.99999977
1496,64084567.84311173
1532,57764642.17263899
1556,57764642.17263899
2227,18105734.029083644
2365,6319925.670472744
4121,247.63450301748197
4133,48.44051688707159
4170,146.49394504991597
4230,0.0
4243,0.0
4354,197182338.19477154
4480,0.0
2,1, 8,21, 0, 7, 0.00,60.00,SummerDesignDay
10,757833698.9305918
46,249737579.99999974
70,96701579.99999997
345,153035999.9999997
992,231449399.99999977
1016,231449399.99999977
1496,63713834.644634429
1532,57764642.17263899
1556,57764642.17263899
2227,17979958.21505615
2365,5949192.471995434
4121,292.42554049581755
4133,83.85814839726729
4170,146.49394504991597
4230,0.0
4243,0.0
4354,258666468.28999529
4480,0.0
2,1, 8,21, 0, 8, 0.00,60.00,SummerDesignDay
10,772762723.1279419
46,249737579.99999974
70,96701579.99999997
345,153035999.9999997
992,231449399.99999977
1016,231449399.99999977
1496,64083858.520581308
1532,57764642.17263899
1556,57764642.17263899
2227,17562365.78526585
2365,6319216.347942323
4121,282.61419053740107
4133,64.01422442625153
4170,146.49394504991597
4230,0.0
4243,0.0
4354,274013094.7284855
4480,0.0
2,1, 8,21, 0, 9, 0.00,60.00,SummerDesignDay
10,805689271.009837
46,249737579.99999974
70,96701579.99999997
345,153035999.9999997
992,231449399.99999977
1016,231449399.99999977
1496,63724143.04658758
1532,57764642.17263899
1556,57764642.17263899
2227,17562227.717575987
2365,5959500.873948584
4121,291.43033086989228
4133,61.511926620180947
4170,146.49394504991597
4230,0.0
4243,0.0
4354,306939771.86193016
4480,0.0
2,1, 8,21, 0,10, 0.00,60.00,SummerDesignDay
10,835342321.7773557
46,249737579.99999974
70,96701579.99999997
345,153035999.9999997
992,231449399.99999977
1016,231449399.99999977
1496,64073352.52430851
1532,57764642.17263899
1556,57764642.17263899
2227,17561790.612123699
2365,6308710.351669516
4121,299.28356961348848
4133,61.44227105225636
4170,146.49394504991597
4230,0.0
4243,0.0
4354,336593251.88166239
4480,0.0
2,1, 8,21, 0,11, 0.00,60.00,SummerDesignDay
10,857680415.0536622
46,249737579.99999974
70,96701579.99999997
345,153035999.9999997
992,231449399.99999977
1016,231449399.99999977
1496,63756679.96487142
1532,57764642.17263899
1556,57764642.17263899
2227,17561993.056807244
2365,5992037.792232432
4121,303.6121571195388
4133,61.4459810117475
4170,146.49394504991597
4230,0.0
4243,0.0
4354,358931138.38469776
4480,0.0
2,1, 8,21, 0,12, 0.00,60.00,SummerDesignDay
10,874694482.6280048
46,249737579.99999974
70,96701579.99999997
345,153035999.9999997
992,231449399.99999977
1016,231449399.99999977
1496,64040769.000332627
1532,57764642.17263899
1556,57764642.17263899
2227,17829549.79532928
2365,6276126.827693628
4121,306.40884397178959
4133,61.51277507319516
4170,146.49394504991597
4230,0.0
4243,0.0
4354,375677646.42383167
4480,0.0
2,1, 8,21, 0,13, 0.00,60.00,SummerDesignDay
10,889526185.3213651
46,249737579.99999974
70,96701579.99999997
345,153035999.9999997
992,231449399.99999977
1016,231449399.99999977
1496,63789296.51184576
1532,57764642.17263899
1556,57764642.17263899
2227,18106104.968017878
2365,6024654.339206771
4121,309.4968237028676
4133,61.765069280139069
4170,146.49394504991597
4230,0.0
4243,0.0
4354,390232790.8565235
4480,0.0
2,1, 8,21, 0,14, 0.00,60.00,SummerDesignDay
10,906235723.7853636
46,249737579.99999974
70,96701579.99999997
345,153035999.9999997
992,231449399.99999977
1016,231449399.99999977
1496,64008199.97326465
1532,57764642.17263899
1556,57764642.17263899
2227,17854070.902718866
2365,6243557.800625653
4121,315.3621521323931
4133,62.72259521111345
4170,146.49394504991597
4230,0.0
4243,0.0
4354,407194357.52049276
4480,0.0
2,1, 8,21, 0,15, 0.00,60.00,SummerDesignDay
10,919613464.3732866
46,249737579.99999974
70,96701579.99999997
345,153035999.9999997
992,231449399.99999977
1016,231449399.99999977
1496,63821863.60327007
1532,57764642.17263899
1556,57764642.17263899
2227,17562374.70033364
2365,6057221.430631084
4121,321.6207552362665
4133,64.06481558125445
4170,146.49394504991597
4230,0.0
4243,0.0
4354,420863788.05219778
4480,0.0
2,1, 8,21, 0,16, 0.00,60.00,SummerDesignDay
10,918769925.8165903
46,249737579.99999974
70,96701579.99999997
345,153035999.9999997
992,231449399.99999977
1016,231449399.99999977
1496,63975667.027156669
1532,57764642.17263899
1556,57764642.17263899
2227,17562156.333180895
2365,6211024.854517678
4121,322.9811049980718
4133,64.48992079761179
4170,146.49394504991597
4230,0.0
4243,0.0
4354,420020466.50230446
4480,0.0
2,1, 8,21, 0,17, 0.00,60.00,SummerDesignDay
10,901815215.0329092
46,249737579.99999974
70,96701579.99999997
345,153035999.9999997
992,231449399.99999977
1016,231449399.99999977
1496,63854409.23275918
1532,57764642.17263899
1556,57764642.17263899
2227,17561927.90915772
2365,6089767.060120187
4121,317.527846370559
4133,63.80208488228859
4170,146.49394504991597
4230,0.0
4243,0.0
4354,403065989.5959049
4480,0.0
2,1, 8,21, 0,18, 0.00,60.00,SummerDesignDay
10,874466195.509071
46,249737579.99999974
70,96701579.99999997
345,153035999.9999997
992,231449399.99999977
1016,231449399.99999977
1496,63943073.12052801
1532,57764642.17263899
1556,57764642.17263899
2227,17561654.06164424
2365,6178430.947889019
4121,306.9225498897125
4133,61.54981429312387
4170,146.49394504991597
4230,0.0
4243,0.0
4354,375717254.5248769
4480,0.0
2,1, 8,21, 0,19, 0.00,60.00,SummerDesignDay
10,829848873.2299396
46,249737579.99999974
70,96701579.99999997
345,153035999.9999997
992,231449399.99999977
1016,231449399.99999977
1496,63886997.72063304
1532,57764642.17263899
1556,57764642.17263899
2227,17955029.937712879
2365,6122355.547994051
4121,288.8088697721889
4133,58.43858835040949
4170,146.49394504991597
4230,0.0
4243,0.0
4354,330706574.4833569
4480,0.0
2,1, 8,21, 0,20, 0.00,60.00,SummerDesignDay
10,797234292.9922061
46,249737579.99999974
70,96701579.99999997
345,153035999.9999997
992,231449399.99999977
1016,231449399.99999977
1496,63910469.115800198
1532,57764642.17263899
1556,57764642.17263899
2227,18106154.677680419
2365,6145826.943161203
4121,276.71294769541268
4133,56.146844669874017
4170,146.49394504991597
4230,0.0
4243,0.0
4354,297940881.60157808
4480,0.0
2,1, 8,21, 0,21, 0.00,60.00,SummerDesignDay
10,774857248.6147064
46,249737579.99999974
70,96701579.99999997
345,153035999.9999997
992,231449399.99999977
1016,231449399.99999977
1496,63919587.6010105
1532,57764642.17263899
1556,57764642.17263899
2227,17728758.0269752
2365,6154945.428371513
4121,269.0072940801443
4133,54.68461450491843
4170,146.49394504991597
4230,0.0
4243,0.0
4354,275941241.5804372
4480,0.0
2,1, 8,21, 0,22, 0.00,60.00,SummerDesignDay
10,737665548.9472951
46,249737579.99999974
70,96701579.99999997
345,153035999.9999997
992,231449399.99999977
1016,231449399.99999977
1496,63878052.4676796
1532,57764642.17263899
1556,57764642.17263899
2227,17563639.782436406
2365,6113410.295040609
4121,253.5464169695962
4133,43.82128267213879
4170,146.49394504991597
4230,0.0
4243,0.0
4354,238914675.6184417
4480,0.0
2,1, 8,21, 0,23, 0.00,60.00,SummerDesignDay
10,724570590.6241171
46,249737579.99999974
70,96701579.99999997
345,153035999.9999997
992,231449399.99999977
1016,231449399.99999977
1496,63952440.32023718
1532,57764642.17263899
1556,57764642.17263899
2227,17561666.19917793
2365,6187798.147598192
4121,249.8111889270703
4133,43.61026875182503
4170,146.49394504991597
4230,0.0
4243,0.0
4354,225821694.6137504
4480,0.0
2,1, 8,21, 0,24, 0.00,60.00,SummerDesignDay
10,713382250.6944097
46,249737579.99999974
70,96701579.99999997
345,153035999.9999997
992,231449399.99999977
1016,231449399.99999977
1496,63844915.155342448
1532,57764642.17263899
1556,57764642.17263899
2227,17561986.419674756
2365,6080272.982703457
4121,246.7418919531885
4133,43.43737473471288
4170,146.49394504991597
4230,0.0
4243,0.0
4354,214633037.53284277
4480,0.0
1,FULLERTON-MUNICIPAL ANN CLG 0.4% CONDNS DP=>MCDB,  33.87,-117.98,  -8.00,  29.00
2,1, 8,21, 0, 1, 0.00,60.00,SummerDesignDay
10,615053942.6259838
46,249737579.99999974
70,96701579.99999997
345,153035999.9999997
992,231449399.99999977
1016,231449399.99999977
1496,63713340.07518375
1532,57764642.17263899
1556,57764642.17263899
2227,17561951.78108327
2365,5948697.902544763
4121,222.47650621679805
4133,40.35721550658323
4170,146.49394504991597
4230,0.0
4243,0.0
4354,116304788.3683945
4480,0.0
2,1, 8,21, 0, 2, 0.00,60.00,SummerDesignDay
10,604541949.257212
46,249737579.99999974
70,96701579.99999997
345,153035999.9999997
992,231449399.99999977
1016,231449399.99999977
1496,64083999.38068528
1532,57764642.17263899
1556,57764642.17263899
2227,17562521.01754955
2365,6319357.20804629
4121,220.46101491970146
4133,40.362795042710427
4170,146.49394504991597
4230,0.0
4243,0.0
4354,105792227.7786474
4480,0.0
2,1, 8,21, 0, 3, 0.00,60.00,SummerDesignDay
10,597096968.4096648
46,249737579.99999974
70,96701579.99999997
345,153035999.9999997
992,231449399.99999977
1016,231449399.99999977
1496,63713534.2029892
1532,57764642.17263899
1556,57764642.17263899
2227,17561936.961353106
2365,5948892.030350212
4121,219.00897008990109
4133,40.36660156628101
4170,146.49394504991597
4230,0.0
4243,0.0
4354,98347832.43934155
4480,0.0
2,1, 8,21, 0, 4, 0.00,60.00,SummerDesignDay
10,590619491.6287875
46,249737579.99999974
70,96701579.99999997
345,153035999.9999997
992,231449399.99999977
1016,231449399.99999977
1496,64083943.35122855
1532,57764642.17263899
1556,57764642.17263899
2227,17562004.99161239
2365,6319301.178589557
4121,217.75811411577349
4133,40.36916605883148
4170,146.49394504991597
4230,0.0
4243,0.0
4354,91870288.87906087
4480,0.0
2,1, 8,21, 0, 5, 0.00,60.00,SummerDesignDay
10,585593557.4687349
46,249737579.99999974
70,96701579.99999997
345,153035999.9999997
992,231449399.99999977
1016,231449399.99999977
1496,63713585.20593354
1532,57764642.17263899
1556,57764642.17263899
2227,17702993.734602866
2365,5948943.033294544
4121,216.7282352639524
4133,40.370935032734
4170,146.49394504991597
4230,0.0
4243,0.0
4354,86703367.00589663
4480,0.0
2,1, 8,21, 0, 6, 0.00,60.00,SummerDesignDay
10,605796563.1667858
46,249737579.99999974
70,96701579.99999997
345,153035999.9999997
992,231449399.99999977
1016,231449399.99999977
1496,64084389.21321283
1532,57764642.17263899
1556,57764642.17263899
2227,18105742.943468494
2365,6319747.040573839
4121,222.56345961412985
4133,44.59934877842528
4170,146.49394504991597
4230,0.0
4243,0.0
4354,106503617.65985775
4480,0.0
2,1, 8,21, 0, 7, 0.00,60.00,SummerDesignDay
10,676924253.5158912
46,249737579.99999974
70,96701579.99999997
345,153035999.9999997
992,231449399.99999977
1016,231449399.99999977
1496,64723965.26315079
1532,57764642.17263899
1556,57764642.17263899
2227,17981503.539918323
2365,5949263.791860945
4121,248.99435339195814
4133,60.542226862473999
4170,146.49394504991597
4230,1010059.2986508559
4243,0.0
4354,177755520.9816194
4480,0.0
2,1, 8,21, 0, 8, 0.00,60.00,SummerDesignDay
10,699600426.2459034
46,249737579.99999974
70,96701579.99999997
345,153035999.9999997
992,231449399.99999977
1016,231449399.99999977
1496,64083858.17147843
1532,57764642.17263899
1556,57764642.17263899
2227,17562365.950263535
2365,6319215.998839441
4121,252.0474607958801
4133,52.19068817485325
4170,146.49394504991597
4230,0.0
4243,0.0
4354,200850828.24817906
4480,0.0
2,1, 8,21, 0, 9, 0.00,60.00,SummerDesignDay
10,746600590.8606302
46,249737579.99999974
70,96701579.99999997
345,153035999.9999997
992,231449399.99999977
1016,231449399.99999977
1496,63724612.428216818
1532,57764642.17263899
1556,57764642.17263899
2227,17562100.00641493
2365,5959970.255577828
4121,264.77713671993225
4133,52.093150471076167
4170,146.49394504991597
4230,0.0
4243,0.0
4354,247851246.0770784
4480,0.0
2,1, 8,21, 0,10, 0.00,60.00,SummerDesignDay
10,787378489.5231357
46,249737579.99999974
70,96701579.99999997
345,153035999.9999997
992,231449399.99999977
1016,231449399.99999977
1496,64072756.424306619
1532,57764642.17263899
1556,57764642.17263899
2227,17561791.565731169
2365,6308114.251667625
4121,274.790092130389
4133,52.78737524943119
4170,146.49394504991597
4230,0.0
4243,0.0
4354,288629443.1673124
4480,0.0
2,1, 8,21, 0,11, 0.00,60.00,SummerDesignDay
10,810859695.2579842
46,249737579.99999974
70,96701579.99999997
345,153035999.9999997
992,231449399.99999977
1016,231449399.99999977
1496,63757253.91277191
1532,57764642.17263899
1556,57764642.17263899
2227,17561541.30689545
2365,5992611.7401329199
4121,280.09140668116916
4133,53.2644639041517
4170,146.49394504991597
4230,0.0
4243,0.0
4354,312110893.859682
4480,0.0
2,1, 8,21, 0,12, 0.00,60.00,SummerDesignDay
10,826827625.2085295
46,249737579.99999974
70,96701579.99999997
345,153035999.9999997
992,231449399.99999977
1016,231449399.99999977
1496,64040131.60435781
1532,57764642.17263899
1556,57764642.17263899
2227,17829019.502786366
2365,6275489.431718821
4121,283.0518060787325
4133,53.630052592845888
4170,146.49394504991597
4230,0.0
4243,0.0
4354,327811342.6539371
4480,0.0
2,1, 8,21, 0,13, 0.00,60.00,SummerDesignDay
10,839819777.5870591
46,249737579.99999974
70,96701579.99999997
345,153035999.9999997
992,231449399.99999977
1016,231449399.99999977
1496,63789933.730744499
1532,57764642.17263899
1556,57764642.17263899
2227,18106104.788491116
2365,6025291.558105509
4121,286.05910132875877
4133,54.00972195400457
4170,146.49394504991597
4230,0.0
4243,0.0
4354,340526406.7394667
4480,0.0
2,1, 8,21, 0,14, 0.00,60.00,SummerDesignDay
10,855162355.8861935
46,249737579.99999974
70,96701579.99999997
345,153035999.9999997
992,231449399.99999977
1016,231449399.99999977
1496,64030491.29413902
1532,57764642.17263899
1556,57764642.17263899
2227,17854600.812827447
2365,6242920.990978231
4121,291.9762611299277
4133,54.859140990008508
4170,146.49394504991597
4230,22928.130521801402
4243,0.0
4354,356120483.097105
4480,0.0
2,1, 8,21, 0,15, 0.00,60.00,SummerDesignDay
10,867599882.5594817
46,249737579.99999974
70,96701579.99999997
345,153035999.9999997
992,231449399.99999977
1016,231449399.99999977
1496,63914417.093834448
1532,57764642.17263899
1556,57764642.17263899
2227,17562374.57463371
2365,6057858.347712944
4121,298.13562136577249
4133,55.994257413018058
4170,146.49394504991597
4230,91916.57348251165
4243,0.0
4354,368850229.8492265
4480,0.0
2,1, 8,21, 0,16, 0.00,60.00,SummerDesignDay
10,866627950.9518652
46,249737579.99999974
70,96701579.99999997
345,153035999.9999997
992,231449399.99999977
1016,231449399.99999977
1496,64122764.01990161
1532,57764642.17263899
1556,57764642.17263899
2227,17562156.932091498
2365,6210388.874799295
4121,299.312318089305
4133,56.41229192038802
4170,146.49394504991597
4230,147732.9724633345
4243,0.0
4354,367878514.7074555
4480,0.0
2,1, 8,21, 0,17, 0.00,60.00,SummerDesignDay
10,850085583.8377
46,249737579.99999974
70,96701579.99999997
345,153035999.9999997
992,231449399.99999977
1016,231449399.99999977
1496,64087479.0976111
1532,57764642.17263899
1556,57764642.17263899
2227,17561927.750938976
2365,6090403.434714257
4121,293.53778674324038
4133,55.91091294914344
4170,146.49394504991597
4230,232433.4902578508
4243,0.0
4354,351336382.5489744
4480,0.0
2,1, 8,21, 0,18, 0.00,60.00,SummerDesignDay
10,822817336.1137047
46,249737579.99999974
70,96701579.99999997
345,153035999.9999997
992,231449399.99999977
1016,231449399.99999977
1496,64299356.73542145
1532,57764642.17263899
1556,57764642.17263899
2227,17561654.630668913
2365,6177794.014567941
4121,283.2596908687173
4133,54.21778828176645
4170,146.49394504991597
4230,356920.5482145221
4243,0.0
4354,324068418.22334489
4480,0.0
2,1, 8,21, 0,19, 0.00,60.00,SummerDesignDay
10,779262385.0254719
46,249737579.99999974
70,96701579.99999997
345,153035999.9999997
992,231449399.99999977
1016,231449399.99999977
1496,64421257.35556801
1532,57764642.17263899
1556,57764642.17263899
2227,17954498.714160287
2365,6122992.06784647
4121,265.72799751092449
4133,51.82483130381328
4170,146.49394504991597
4230,533623.1150825494
4243,0.0
4354,280120640.58331397
4480,0.0
2,1, 8,21, 0,20, 0.00,60.00,SummerDesignDay
10,747737850.0152612
46,249737579.99999974
70,96701579.99999997
345,153035999.9999997
992,231449399.99999977
1016,231449399.99999977
1496,64613585.55597662
1532,57764642.17263899
1556,57764642.17263899
2227,18106154.436636934
2365,6145190.386728398
4121,254.25633599202534
4133,50.02795535796132
4170,146.49394504991597
4230,703752.9966092375
4243,0.0
4354,248444461.3222882
4480,0.0
2,1, 8,21, 0,21, 0.00,60.00,SummerDesignDay
10,722787343.5547077
46,249737579.99999974
70,96701579.99999997
345,153035999.9999997
992,231449399.99999977
1016,231449399.99999977
1496,64773064.96235703
1532,57764642.17263899
1556,57764642.17263899
2227,17729288.2194985
2365,6155581.852641809
4121,246.90005717079368
4133,48.87625795152817
4170,146.49394504991597
4230,852840.937076232
4243,0.0
4354,223870828.43515194
4480,0.0
2,1, 8,21, 0,22, 0.00,60.00,SummerDesignDay
10,678466644.8019164
46,249737579.99999974
70,96701579.99999997
345,153035999.9999997
992,231449399.99999977
1016,231449399.99999977
1496,63877853.90043268
1532,57764642.17263899
1556,57764642.17263899
2227,17562767.013528367
2365,6113211.727793701
4121,235.69953916954473
4133,42.73838910631729
4170,146.49394504991597
4230,0.0
4243,0.0
4354,179716662.08884884
4480,0.0
2,1, 8,21, 0,23, 0.00,60.00,SummerDesignDay
10,658576360.0808425
46,249737579.99999974
70,96701579.99999997
345,153035999.9999997
992,231449399.99999977
1016,231449399.99999977
1496,63952508.89914595
1532,57764642.17263899
1556,57764642.17263899
2227,17562114.56855979
2365,6187866.7265069619
4121,231.30875102919834
4133,42.53820954344805
4170,146.49394504991597
4230,0.0
4243,0.0
4354,159827034.2035317
4480,0.0
2,1, 8,21, 0,24, 0.00,60.00,SummerDesignDay
10,641309717.2212134
46,249737579.99999974
70,96701579.99999997
345,153035999.9999997
992,231449399.99999977
1016,231449399.99999977
1496,63844645.758109558
1532,57764642.17263899
1556,57764642.17263899
2227,17561986.76033522
2365,6080003.585470556
4121,227.5806914354472
4133,42.388898746898977
4170,146.49394504991597
4230,0.0
4243,0.0
4354,142560522.8801866
4480,0.0
1,FULLERTON-MUNICIPAL ANN HTG 99.6% CONDNS DB,  33.87,-117.98,  -8.00,  29.00
2,1, 1,21, 0, 1, 0.00,60.00,WinterDesignDay
10,72198.10287475212
46,0.0
70,0.0
345,0.0
992,0.0
1016,0.0
1496,337761783.46220818
1532,0.0
1556,0.0
2227,72000.0
2365,579679.1997937226
4121,198.10287475206602
4133,40.2967764951499
4170,146.49394504991597
4230,337182104.26241448
4243,0.0
4354,0.0
4480,0.0
2,1, 1,21, 0, 2, 0.00,60.00,WinterDesignDay
10,72209.41163938132
46,0.0
70,0.0
345,0.0
992,0.0
1016,0.0
1496,418107862.48365327
1532,0.0
1556,0.0
2227,72000.0
2365,833483.936473899
4121,209.4116393812558
4133,40.2967764951499
4170,146.49394504991597
4230,417274378.54717937
4243,0.0
4354,0.0
4480,0.0
2,1, 1,21, 0, 3, 0.00,60.00,WinterDesignDay
10,72218.22109068962
46,0.0
70,0.0
345,0.0
992,0.0
1016,0.0
1496,486921404.1544699
1532,0.0
1556,0.0
2227,72000.0
2365,833372.2904352646
4121,218.2210906895696
4133,40.2967764951499
4170,146.49394504991597
4230,486088031.8640346
4243,0.0
4354,0.0
4480,0.0
2,1, 1,21, 0, 4, 0.00,60.00,WinterDesignDay
10,72224.4792186041
46,0.0
70,0.0
345,0.0
992,0.0
1016,0.0
1496,538608091.7523
1532,0.0
1556,0.0
2227,72000.0
2365,833413.0588825962
4121,224.47921860404134
4133,40.2967764951499
4170,146.49394504991597
4230,537774678.6934174
4243,0.0
4354,0.0
4480,0.0
2,1, 1,21, 0, 5, 0.00,60.00,WinterDesignDay
10,72229.35910495423
46,0.0
70,0.0
345,0.0
992,0.0
1016,0.0
1496,585882323.3785694
1532,0.0
1556,0.0
2227,72000.0
2365,833295.4676707607
4121,229.35910495418049
4133,40.2967764951499
4170,146.49394504991597
4230,585049027.9108985
4243,0.0
4354,0.0
4480,0.0
2,1, 1,21, 0, 6, 0.00,60.00,WinterDesignDay
10,10784067.071904362
46,0.0
70,0.0
345,0.0
992,0.0
1016,0.0
1496,813114785.9521736
1532,0.0
1556,0.0
2227,72000.0
2365,670267.1543730949
4121,257.48178781076487
4133,65.09367422878718
4170,146.49394504991597
4230,812444518.7978006
4243,0.0
4354,10711809.59011655
4480,0.0
2,1, 1,21, 0, 7, 0.00,60.00,WinterDesignDay
10,26985411.665900895
46,0.0
70,0.0
345,0.0
992,0.0
1016,0.0
1496,1737892818.1884735
1532,0.0
1556,0.0
2227,72000.0
2365,742848.8307284834
4121,410.9062963241777
4133,118.75751343965578
4170,146.49394504991597
4230,1737149969.3577448
4243,0.0
4354,26913000.759604567
4480,0.0
2,1, 1,21, 0, 8, 0.00,60.00,WinterDesignDay
10,1068744.4969259923
46,0.0
70,0.0
345,0.0
992,0.0
1016,0.0
1496,1405463607.205336
1532,0.0
1556,0.0
2227,72000.0
2365,833535.8868128354
4121,315.08435636302979
4133,44.380474859434539
4170,146.49394504991597
4230,1404630071.3185235
4243,0.0
4354,996429.412569629
4480,0.0
2,1, 1,21, 0, 9, 0.00,60.00,WinterDesignDay
10,72293.19063599868
46,0.0
70,0.0
345,0.0
992,0.0
1016,0.0
1496,1231974998.241164
1532,0.0
1556,0.0
2227,72000.0
2365,833339.954271415
4121,293.19063599861729
4133,41.05214114920839
4170,146.49394504991597
4230,1231141658.2868925
4243,0.0
4354,0.0
4480,0.0
2,1, 1,21, 0,10, 0.00,60.00,WinterDesignDay
10,72283.37815831474
46,0.0
70,0.0
345,0.0
992,0.0
1016,0.0
1496,1148459027.745111
1532,0.0
1556,0.0
2227,72000.0
2365,833380.9407995032
4121,283.37815831468608
4133,40.59252312029738
4170,146.49394504991597
4230,1147625646.8043116
4243,0.0
4354,0.0
4480,0.0
2,1, 1,21, 0,11, 0.00,60.00,WinterDesignDay
10,72277.43209366829
46,0.0
70,0.0
345,0.0
992,0.0
1016,0.0
1496,1097788452.324373
1532,0.0
1556,0.0
2227,72000.0
2365,833292.0023459642
4121,277.43209366822046
4133,40.457699997796677
4170,146.49394504991597
4230,1096955160.322027
4243,0.0
4354,0.0
4480,0.0
2,1, 1,21, 0,12, 0.00,60.00,WinterDesignDay
10,72273.45000012641
46,0.0
70,0.0
345,0.0
992,0.0
1016,0.0
1496,1064029341.4532693
1532,0.0
1556,0.0
2227,72000.0
2365,579602.1716316186
4121,273.4500001263732
4133,40.381692521798658
4170,146.49394504991597
4230,1063449739.2816377
4243,0.0
4354,0.0
4480,0.0
2,1, 1,21, 0,13, 0.00,60.00,WinterDesignDay
10,72270.69244843454
46,0.0
70,0.0
345,0.0
992,0.0
1016,0.0
1496,1040957493.4591353
1532,0.0
1556,0.0
2227,72000.0
2365,833383.6785551657
4121,270.69244843448805
4133,40.33978877301398
4170,146.49394504991597
4230,1040124109.7805803
4243,0.0
4354,0.0
4480,0.0
2,1, 1,21, 0,14, 0.00,60.00,WinterDesignDay
10,72268.74437536886
46,0.0
70,0.0
345,0.0
992,0.0
1016,0.0
1496,1024515127.7323151
1532,0.0
1556,0.0
2227,72000.0
2365,833425.1224213205
4121,268.74437536877579
4133,40.3249988525468
4170,146.49394504991597
4230,1023681702.6098938
4243,0.0
4354,0.0
4480,0.0
2,1, 1,21, 0,15, 0.00,60.00,WinterDesignDay
10,72267.36330377337
46,0.0
70,0.0
345,0.0
992,0.0
1016,0.0
1496,1012808281.9964862
1532,0.0
1556,0.0
2227,72000.0
2365,833321.063056543
4121,267.36330377329866
4133,40.31598261946834
4170,146.49394504991597
4230,1011974960.9334295
4243,0.0
4354,0.0
4480,0.0
2,1, 1,21, 0,16, 0.00,60.00,WinterDesignDay
10,72266.3605575549
46,0.0
70,0.0
345,0.0
992,0.0
1016,0.0
1496,1004255280.754117
1532,0.0
1556,0.0
2227,72000.0
2365,833348.6612087804
4121,266.3605575548403
4133,40.309895366090838
4170,146.49394504991597
4230,1003421932.0929083
4243,0.0
4354,0.0
4480,0.0
2,1, 1,21, 0,17, 0.00,60.00,WinterDesignDay
10,72265.62654816649
46,0.0
70,0.0
345,0.0
992,0.0
1016,0.0
1496,998075772.6031733
1532,0.0
1556,0.0
2227,72000.0
2365,833388.82556296
4121,265.6265481664276
4133,40.30580212477375
4170,146.49394504991597
4230,997242383.7776103
4243,0.0
4354,0.0
4480,0.0
2,1, 1,21, 0,18, 0.00,60.00,WinterDesignDay
10,72265.08946860598
46,0.0
70,0.0
345,0.0
992,0.0
1016,0.0
1496,993200139.7747693
1532,0.0
1556,0.0
2227,72000.0
2365,579580.6755480592
4121,265.0894686059166
4133,40.30308638959603
4170,146.49394504991597
4230,992620559.0992212
4243,0.0
4354,0.0
4480,0.0
2,1, 1,21, 0,19, 0.00,60.00,WinterDesignDay
10,72264.70916172673
46,0.0
70,0.0
345,0.0
992,0.0
1016,0.0
1496,990225856.1198945
1532,0.0
1556,0.0
2227,72000.0
2365,833354.0622055994
4121,264.70916172667696
4133,40.301337042837129
4170,146.49394504991597
4230,989392502.0576891
4243,0.0
4354,0.0
4480,0.0
2,1, 1,21, 0,20, 0.00,60.00,WinterDesignDay
10,72264.42690305562
46,0.0
70,0.0
345,0.0
992,0.0
1016,0.0
1496,987874878.8857365
1532,0.0
1556,0.0
2227,72000.0
2365,833392.9653357379
4121,264.42690305554796
4133,40.29991129012213
4170,146.49394504991597
4230,987041485.9204006
4243,0.0
4354,0.0
4480,0.0
2,1, 1,21, 0,21, 0.00,60.00,WinterDesignDay
10,72264.2132749047
46,0.0
70,0.0
345,0.0
992,0.0
1016,0.0
1496,986011163.7267062
1532,0.0
1556,0.0
2227,72000.0
2365,833433.594646115
4121,264.21327490464327
4133,40.29883005552896
4170,146.49394504991597
4230,985177730.13206
4243,0.0
4354,0.0
4480,0.0
2,1, 1,21, 0,22, 0.00,60.00,WinterDesignDay
10,846508.7367231238
46,0.0
70,0.0
345,0.0
992,0.0
1016,0.0
1496,793038073.1017131
1532,0.0
1556,0.0
2227,846244.6889722301
2365,833468.923110933
4121,264.04775089382999
4133,40.29786389996364
4170,146.49394504991597
4230,792204604.1786021
4243,0.0
4354,0.0
4480,0.0
2,1, 1,21, 0,23, 0.00,60.00,WinterDesignDay
10,72186.80121735521
46,0.0
70,0.0
345,0.0
992,0.0
1016,0.0
1496,323168191.43946388
1532,0.0
1556,0.0
2227,72000.0
2365,773602.209430265
4121,186.80121735515386
4133,40.30727230523789
4170,146.49394504991597
4230,322394589.2300336
4243,0.0
4354,0.0
4480,0.0
2,1, 1,21, 0,24, 0.00,60.00,WinterDesignDay
10,72188.37628357276
46,0.0
70,0.0
345,0.0
992,0.0
1016,0.0
1496,365578152.47419646
1532,0.0
1556,0.0
2227,72000.0
2365,639433.0671179167
4121,188.37628357268609
4133,40.38858622994221
4170,146.49394504991597
4230,364938719.40707859
4243,0.0
4354,0.0
4480,0.0
1,FULLERTON-MUNICIPAL AUG CLG 0.4% CONDNS DB=>MCWB,  33.87,-117.98,  -8.00,  29.00
2,1, 8,21, 0, 1, 0.00,60.00,SummerDesignDay
10,750641936.247656
46,249737579.99999974
70,96701579.99999997
345,153035999.9999997
992,231449399.99999977
1016,231449399.99999977
1496,63713264.42411844
1532,57764642.17263899
1556,57764642.17263899
2227,17561569.334318744
2365,5948622.251479449
4121,251.21487395856054
4133,40.403508900518719
4170,146.49394504991597
4230,0.0
4243,0.0
4354,251893135.69846333
4480,0.0
2,1, 8,21, 0, 2, 0.00,60.00,SummerDesignDay
10,744217217.145397
46,249737579.99999974
70,96701579.99999997
345,153035999.9999997
992,231449399.99999977
1016,231449399.99999977
1496,64083999.15902549
1532,57764642.17263899
1556,57764642.17263899
2227,17562519.492654697
2365,6319356.986386504
4121,249.94287460116449
4133,40.41983008241344
4170,146.49394504991597
4230,0.0
4243,0.0
4354,245467467.70986764
4480,0.0
2,1, 8,21, 0, 3, 0.00,60.00,SummerDesignDay
10,740021092.9059479
46,249737579.99999974
70,96701579.99999997
345,153035999.9999997