Program Version,EnergyPlus, Version 9.0.1-bb7ca4f0da, YMD=2019.12.17 17:45
1,5,Environment Title[],Latitude[deg],Longitude[deg],Time Zone[],Elevation[m]
2,8,Day of Simulation[],Month[],Day of Month[],DST Indicator[1=yes 0=no],Hour[],StartMinute[],EndMinute[],DayType
3,5,Cumulative Day of Simulation[],Month[],Day of Month[],DST Indicator[1=yes 0=no],DayType  ! When Daily Meters Requested
4,2,Cumulative Days of Simulation[],Month[]  ! When Monthly Meters Requested
5,1,Cumulative Days of Simulation[] ! When Run Period Meters Requested
6,1,Calendar Year of Simulation[] ! When Annual Meters Requested
4230,1,Heating:Gas [J] !Hourly
1532,1,InteriorEquipment:Gas [J] !Hourly
4133,1,General:Fans:Electricity [J] !Hourly
46,1,InteriorLights:Electricity [J] !Hourly
1556,1,Receptacle:InteriorEquipment:Gas [J] !Hourly
4354,1,Cooling:Electricity [J] !Hourly
992,1,InteriorEquipment:Electricity [J] !Hourly
4243,1,Heating:Electricity [J] !Hourly
10,1,Electricity:Facility [J] !Hourly
4121,1,Fans:Electricity [J] !Hourly
4480,1,Pumps:Electricity [J] !Hourly
2227,1,WaterSystems:Electricity [J] !Hourly
1496,1,Gas:Facility [J] !Hourly
345,1,NonComplianceLtg:InteriorLights:Electricity [J] !Hourly
2365,1,WaterSystems:Gas [J] !Hourly
1016,1,Receptacle:InteriorEquipment:Electricity [J] !Hourly
70,1,ComplianceLtg:InteriorLights:Electricity [J] !Hourly
4170,1,ProcessMotors:Fans:Electricity [J] !Hourly
End of Data Dictionary
1,RED-BLUFF-MUNICIPAL-ARPT ANN CLG 0.4% CONDNS DB=>MCWB,  40.15,-122.25,  -8.00, 106.00
2,1, 7,21, 0, 1, 0.00,60.00,SummerDesignDay
10,710587315.468052
46,249737579.99999974
70,96701579.99999997
345,153035999.9999997
992,231449399.99999977
1016,231449399.99999977
1496,63755291.771067079
1532,57764642.17263899
1556,57764642.17263899
2227,17660847.996970077
2365,5990649.5984280849
4121,244.90470743237945
4133,40.32184979829353
4170,146.49394504991597
4230,0.0
4243,0.0
4354,211739242.56637449
4480,0.0
2,1, 7,21, 0, 2, 0.00,60.00,SummerDesignDay
10,698324066.1284946
46,249737579.99999974
70,96701579.99999997
345,153035999.9999997
992,231449399.99999977
1016,231449399.99999977
1496,64121627.05999274
1532,57764642.17263899
1556,57764642.17263899
2227,17660804.920235654
2365,6356984.887353748
4121,242.31915375505668
4133,40.33644469673024
4170,146.49394504991597
4230,0.0
4243,0.0
4354,199476038.88910524
4480,0.0
2,1, 7,21, 0, 3, 0.00,60.00,SummerDesignDay
10,690328220.6556509
46,249737579.99999974
70,96701579.99999997
345,153035999.9999997
992,231449399.99999977
1016,231449399.99999977
1496,63908302.70280105
1532,57764642.17263899
1556,57764642.17263899
2227,18022241.720053309
2365,6143660.530162064
4121,240.59045271311875
4133,40.347998720730817
4170,146.49394504991597
4230,0.0
4243,0.0
4354,191118758.34514479
4480,0.0
2,1, 7,21, 0, 4, 0.00,60.00,SummerDesignDay
10,683505821.112678
46,249737579.99999974
70,96701579.99999997
345,153035999.9999997
992,231449399.99999977
1016,231449399.99999977
1496,63968827.71862595
1532,57764642.17263899
1556,57764642.17263899
2227,18388755.659129088
2365,6204185.545986954
4121,239.12728135330932
4133,40.35663455029822
4170,146.49394504991597
4230,0.0
4243,0.0
4354,183929846.3262676
4480,0.0
2,1, 7,21, 0, 5, 0.00,60.00,SummerDesignDay
10,677057334.0030551
46,249737579.99999974
70,96701579.99999997
345,153035999.9999997
992,231449399.99999977
1016,231449399.99999977
1496,64105711.17498867
1532,57764642.17263899
1556,57764642.17263899
2227,17661510.743342
2365,6341069.002349675
4121,237.93042617106947
4133,40.36307609480067
4170,146.49394504991597
4230,0.0
4243,0.0
4354,178208605.32928688
4480,0.0
2,1, 7,21, 0, 6, 0.00,60.00,SummerDesignDay
10,708360496.1131401
46,249737579.99999974
70,96701579.99999997
345,153035999.9999997
992,231449399.99999977
1016,231449399.99999977
1496,63771710.9940843
1532,57764642.17263899
1556,57764642.17263899
2227,17661554.84732713
2365,6007068.821445311
4121,251.96361560983764
4133,49.009126231914887
4170,146.49394504991597
4230,0.0
4243,0.0
4354,209511709.30219729
4480,0.0
2,1, 7,21, 0, 7, 0.00,60.00,SummerDesignDay
10,795548483.3832638
46,249737579.99999974
70,96701579.99999997
345,153035999.9999997
992,231449399.99999977
1016,231449399.99999977
1496,64121747.3813913
1532,57764642.17263899
1556,57764642.17263899
2227,18299304.541267918
2365,6357105.20875231
4121,302.33042067889019
4133,88.38650898831878
4170,146.49394504991597
4230,0.0
4243,0.0
4354,296061896.5115752
4480,0.0
2,1, 7,21, 0, 8, 0.00,60.00,SummerDesignDay
10,814649106.3171023
46,249737579.99999974
70,96701579.99999997
345,153035999.9999997
992,231449399.99999977
1016,231449399.99999977
1496,63892086.09158402
1532,57764642.17263899
1556,57764642.17263899
2227,18112772.45739721
2365,6127443.918945025
4121,289.9528419861671
4133,66.42307480427992
4170,146.49394504991597
4230,0.0
4243,0.0
4354,315349063.9068631
4480,0.0
2,1, 7,21, 0, 9, 0.00,60.00,SummerDesignDay
10,864185486.6539707
46,249737579.99999974
70,96701579.99999997
345,153035999.9999997
992,231449399.99999977
1016,231449399.99999977
1496,63984866.15590591
1532,57764642.17263899
1556,57764642.17263899
2227,17660890.663623915
2365,6220223.983266922
4121,299.68465506165969
4133,63.23749990992199
4170,146.49394504991597
4230,0.0
4243,0.0
4354,365337316.3056918
4480,0.0
2,1, 7,21, 0,10, 0.00,60.00,SummerDesignDay
10,915178399.3533315
46,249737579.99999974
70,96701579.99999997
345,153035999.9999997
992,231449399.99999977
1016,231449399.99999977
1496,64089640.27260463
1532,57764642.17263899
1556,57764642.17263899
2227,17660179.165255034
2365,6324998.099965641
4121,309.04927980791509
4133,62.88849707755362
4170,146.49394504991597
4230,0.0
4243,0.0
4354,416330931.1387966
4480,0.0
2,1, 7,21, 0,11, 0.00,60.00,SummerDesignDay
10,961800879.5092872
46,249737579.99999974
70,96701579.99999997
345,153035999.9999997
992,231449399.99999977
1016,231449399.99999977
1496,63787570.02085431
1532,57764642.17263899
1556,57764642.17263899
2227,18577033.332102639
2365,6022927.848215321
4121,315.6757461066951
4133,62.80117450496445
4170,146.49394504991597
4230,0.0
4243,0.0
4354,462036550.5014383
4480,0.0
2,1, 7,21, 0,12, 0.00,60.00,SummerDesignDay
10,996263236.1517453
46,249737579.99999974
70,96701579.99999997
345,153035999.9999997
992,231449399.99999977
1016,231449399.99999977
1496,64121792.904031049
1532,57764642.17263899
1556,57764642.17263899
2227,17835162.628269968
2365,6357150.731392052
4121,320.1400062176625
4133,62.79232672110935
4170,146.49394504991597
4230,0.0
4243,0.0
4354,497240773.3834692
4480,0.0
2,1, 7,21, 0,13, 0.00,60.00,SummerDesignDay
10,1025665005.8122103
46,249737579.99999974
70,96701579.99999997
345,153035999.9999997
992,231449399.99999977
1016,231449399.99999977
1496,63875699.40451725
1532,57764642.17263899
1556,57764642.17263899
2227,17660848.346818136
2365,6111057.231878263
4121,324.7141498163057
4133,63.03636964499208
4170,146.49394504991597
4230,0.0
4243,0.0
4354,526816852.7512423
4480,0.0
2,1, 7,21, 0,14, 0.00,60.00,SummerDesignDay
10,1052681580.5943041
46,249737579.99999974
70,96701579.99999997
345,153035999.9999997
992,231449399.99999977
1016,231449399.99999977
1496,64001458.005700487
1532,57764642.17263899
1556,57764642.17263899
2227,17847277.063780946
2365,6236815.833061501
4121,330.6011831170468
4133,63.74273662731075
4170,146.49394504991597
4230,0.0
4243,0.0
4354,553646992.92934
4480,0.0
2,1, 7,21, 0,15, 0.00,60.00,SummerDesignDay
10,1074134459.0826574
46,249737579.99999974
70,96701579.99999997
345,153035999.9999997
992,231449399.99999977
1016,231449399.99999977
1496,64073130.190461579
1532,57764642.17263899
1556,57764642.17263899
2227,18563788.591793695
2365,6308488.017822588
4121,338.31997100155726
4133,65.23546263204745
4170,146.49394504991597
4230,0.0
4243,0.0
4354,574383352.1708925
4480,0.0
2,1, 7,21, 0,16, 0.00,60.00,SummerDesignDay
10,1073389187.7643855
46,249737579.99999974
70,96701579.99999997
345,153035999.9999997
992,231449399.99999977
1016,231449399.99999977
1496,63804280.85312264
1532,57764642.17263899
1556,57764642.17263899
2227,17661715.932393619
2365,6039638.680483642
4121,342.6492267505455
4133,66.56415747315123
4170,146.49394504991597
4230,0.0
4243,0.0
4354,574540149.1827649
4480,0.0
2,1, 7,21, 0,17, 0.00,60.00,SummerDesignDay
10,1052720669.4948863
46,249737579.99999974
70,96701579.99999997
345,153035999.9999997
992,231449399.99999977
1016,231449399.99999977
1496,64121675.149094779
1532,57764642.17263899
1556,57764642.17263899
2227,17660817.12997545
2365,6357032.9764557839
4121,340.626438753873
4133,66.46132520978267
4170,146.49394504991597
4230,0.0
4243,0.0
4354,553872531.738472
4480,0.0
2,1, 7,21, 0,18, 0.00,60.00,SummerDesignDay
10,1018725786.776562
46,249737579.99999974
70,96701579.99999997
345,153035999.9999997
992,231449399.99999977
1016,231449399.99999977
1496,63859077.191357757
1532,57764642.17263899
1556,57764642.17263899
2227,18124701.53999689
2365,6094435.018718764
4121,333.9228109422125
4133,65.62668073346585
4170,146.49394504991597
4230,0.0
4243,0.0
4354,519413771.31375417
4480,0.0
2,1, 7,21, 0,19, 0.00,60.00,SummerDesignDay
10,966601979.3390175
46,249737579.99999974
70,96701579.99999997
345,153035999.9999997
992,231449399.99999977
1016,231449399.99999977
1496,64018055.821754667
1532,57764642.17263899
1556,57764642.17263899
2227,18286423.16594248
2365,6253413.649115674
4121,321.18942135513768
4133,63.132290112428069
4170,146.49394504991597
4230,0.0
4243,0.0
4354,467128254.98365357
4480,0.0
2,1, 7,21, 0,20, 0.00,60.00,SummerDesignDay
10,898817367.2568572
46,249737579.99999974
70,96701579.99999997
345,153035999.9999997
992,231449399.99999977
1016,231449399.99999977
1496,64056364.17134063
1532,57764642.17263899
1556,57764642.17263899
2227,17661002.949676496
2365,6291721.998701636
4121,299.6940453039599
4133,59.87162277475509
4170,146.49394504991597
4230,0.0
4243,0.0
4354,399969084.61313536
4480,0.0
2,1, 7,21, 0,21, 0.00,60.00,SummerDesignDay
10,852953098.115483
46,249737579.99999974
70,96701579.99999997
345,153035999.9999997
992,231449399.99999977
1016,231449399.99999977
1496,63821036.3068001
1532,57764642.17263899
1556,57764642.17263899
2227,17660926.43510985
2365,6056394.134161102
4121,285.0642004883528
4133,57.215154415148877
4170,146.49394504991597
4230,0.0
4243,0.0
4354,354104906.61617258
4480,0.0
2,1, 7,21, 0,22, 0.00,60.00,SummerDesignDay
10,790546533.116519
46,249737579.99999974
70,96701579.99999997
345,153035999.9999997
992,231449399.99999977
1016,231449399.99999977
1496,64122375.683944199
1532,57764642.17263899
1556,57764642.17263899
2227,18402630.24353257
2365,6357733.511305206
4121,264.33405591753759
4133,44.65227454861709
4170,146.49394504991597
4230,0.0
4243,0.0
4354,290956658.53893056
4480,0.0
2,1, 7,21, 0,23, 0.00,60.00,SummerDesignDay
10,764402888.651594
46,249737579.99999974
70,96701579.99999997
345,153035999.9999997
992,231449399.99999977
1016,231449399.99999977
1496,63841623.2898578
1532,57764642.17263899
1556,57764642.17263899
2227,18010692.53368477
2365,6076981.11721881
4121,257.832088111519
4133,44.22949550970312
4170,146.49394504991597
4230,0.0
4243,0.0
4354,265204958.285821
4480,0.0
2,1, 7,21, 0,24, 0.00,60.00,SummerDesignDay
10,742436682.5870513
46,249737579.99999974
70,96701579.99999997
345,153035999.9999997
992,231449399.99999977
1016,231449399.99999977
1496,64035608.903113979
1532,57764642.17263899
1556,57764642.17263899
2227,17660972.229553589
2365,6270966.730474982
4121,252.55995003161807
4133,43.918021947705209
4170,146.49394504991597
4230,0.0
4243,0.0
4354,243588477.79754774
4480,0.0
1,RED-BLUFF-MUNICIPAL-ARPT ANN CLG 0.4% CONDNS DP=>MCDB,  40.15,-122.25,  -8.00, 106.00
2,1, 7,21, 0, 1, 0.00,60.00,SummerDesignDay
10,545150440.7566353
46,249737579.99999974
70,96701579.99999997
345,153035999.9999997
992,231449399.99999977
1016,231449399.99999977
1496,63906718.87243599
1532,57764642.17263899
1556,57764642.17263899
2227,17661165.935213206
2365,5990736.479537071
4121,211.07420668813763
4133,40.281768913726818
4170,146.49394504991597
4230,151340.22025992588
4243,0.0
4354,46302083.74721537
4480,0.0
2,1, 7,21, 0, 2, 0.00,60.00,SummerDesignDay
10,535013371.9839871
46,249737579.99999974
70,96701579.99999997
345,153035999.9999997
992,231449399.99999977
1016,231449399.99999977
1496,75275939.30101016
1532,57764642.17263899
1556,57764642.17263899
2227,17660804.933519339
2365,6356984.998103868
4121,207.55035480283829
4133,40.287019387664049
4170,146.49394504991597
4230,11154312.1302673
4243,0.0
4354,36165379.50011297
4480,0.0
2,1, 7,21, 0, 3, 0.00,60.00,SummerDesignDay
10,530758191.85600617
46,249737579.99999974
70,96701579.99999997
345,153035999.9999997
992,231449399.99999977
1016,231449399.99999977
1496,90228085.59515873
1532,57764642.17263899
1556,57764642.17263899
2227,18021506.24760345
2365,6143517.18261792
4121,205.01078797753898
4133,40.2904165210197
4170,146.49394504991597
4230,26319926.23990182
4243,0.0
4354,31549500.59761473
4480,0.0
2,1, 7,21, 0, 4, 0.00,60.00,SummerDesignDay
10,527234607.23929879
46,249737579.99999974
70,96701579.99999997
345,153035999.9999997
992,231449399.99999977
1016,231449399.99999977
1496,104668009.35324019
1532,57764642.17263899
1556,57764642.17263899
2227,18389490.91487351
2365,6204328.953702166
4121,202.85231117498294
4133,40.29271887105709
4170,146.49394504991597
4230,40699038.22689904
4243,0.0
4354,27657933.472114024
4480,0.0
2,1, 7,21, 0, 5, 0.00,60.00,SummerDesignDay
10,523555513.876214
46,249737579.99999974
70,96701579.99999997
345,153035999.9999997
992,231449399.99999977
1016,231449399.99999977
1496,115418961.8484312
1532,57764642.17263899
1556,57764642.17263899
2227,17661512.843894278
2365,6340925.781098736
4121,201.2102643433992
4133,40.294033132844038
4170,146.49394504991597
4230,51313393.89469348
4243,0.0
4354,24706819.822055427
4480,0.0
2,1, 7,21, 0, 6, 0.00,60.00,SummerDesignDay
10,545120443.6603625
46,249737579.99999974
70,96701579.99999997
345,153035999.9999997
992,231449399.99999977
1016,231449399.99999977
1496,103316613.52287218
1532,57764642.17263899
1556,57764642.17263899
2227,17661655.017247946
2365,6006957.61334879
4121,209.71124406356757
4133,43.8544168276825
4170,146.49394504991597
4230,39545013.73688439
4243,0.0
4354,46271598.93187042
4480,0.0
2,1, 7,21, 0, 7, 0.00,60.00,SummerDesignDay
10,619668365.5412285
46,249737579.99999974
70,96701579.99999997
345,153035999.9999997
992,231449399.99999977
1016,231449399.99999977
1496,64768455.63330382
1532,57764642.17263899
1556,57764642.17263899
2227,18298653.917713606
2365,6357221.316470699
4121,238.39229011876106
4133,61.18536273137639
4170,146.49394504991597
4230,646592.1441941259
4243,0.0
4354,120182493.23122484
4480,0.0
2,1, 7,21, 0, 8, 0.00,60.00,SummerDesignDay
10,642890426.0011518
46,249737579.99999974
70,96701579.99999997
345,153035999.9999997
992,231449399.99999977
1016,231449399.99999977
1496,63892348.367317948
1532,57764642.17263899
1556,57764642.17263899
2227,18113385.10457904
2365,6127706.194678951
4121,240.1478822906205
4133,52.32388056059539
4170,146.49394504991597
4230,0.0
4243,0.0
4354,143589820.74869067
4480,0.0
2,1, 7,21, 0, 9, 0.00,60.00,SummerDesignDay
10,702287272.103036
46,249737579.99999974
70,96701579.99999997
345,153035999.9999997
992,231449399.99999977
1016,231449399.99999977
1496,63984603.92723857
1532,57764642.17263899
1556,57764642.17263899
2227,17660890.920617269
2365,6219961.754599578
4121,254.05471721610946
4133,51.941174900350407
4170,146.49394504991597
4230,0.0
4243,0.0
4354,203439147.1277017
4480,0.0
2,1, 7,21, 0,10, 0.00,60.00,SummerDesignDay
10,762852929.7190037
46,249737579.99999974
70,96701579.99999997
345,153035999.9999997
992,231449399.99999977
1016,231449399.99999977
1496,64089902.77061665
1532,57764642.17263899
1556,57764642.17263899
2227,17660179.739907836
2365,6325260.597977657
4121,266.0896977713883
4133,52.478020600381189
4170,146.49394504991597
4230,0.0
4243,0.0
4354,264005503.88939814
4480,0.0
2,1, 7,21, 0,11, 0.00,60.00,SummerDesignDay
10,806303202.5067105
46,249737579.99999974
70,96701579.99999997
345,153035999.9999997
992,231449399.99999977
1016,231449399.99999977
1496,63787307.63228991
1532,57764642.17263899
1556,57764642.17263899
2227,18576420.296554317
2365,6022665.45965092
4121,274.1158076002461
4133,52.95236415530372
4170,146.49394504991597
4230,0.0
4243,0.0
4354,306539528.09434857
4480,0.0
2,1, 7,21, 0,12, 0.00,60.00,SummerDesignDay
10,834571426.7882209
46,249737579.99999974
70,96701579.99999997
345,153035999.9999997
992,231449399.99999977
1016,231449399.99999977
1496,64121792.43772747
1532,57764642.17263899
1556,57764642.17263899
2227,17835775.41043731
2365,6357150.265088486
4121,279.062338919671
4133,53.337058604610437
4170,146.49394504991597
4230,0.0
4243,0.0
4354,335548392.3154447
4480,0.0
2,1, 7,21, 0,13, 0.00,60.00,SummerDesignDay
10,857438405.9550421
46,249737579.99999974
70,96701579.99999997
345,153035999.9999997
992,231449399.99999977
1016,231449399.99999977
1496,63875962.515346188
1532,57764642.17263899
1556,57764642.17263899
2227,17660848.640495674
2365,6111320.342707189
4121,283.9672265892933
4133,53.783738903144477
4170,146.49394504991597
4230,0.0
4243,0.0
4354,358590293.3473198
4480,0.0
2,1, 7,21, 0,14, 0.00,60.00,SummerDesignDay
10,878970931.0350148
46,249737579.99999974
70,96701579.99999997
345,153035999.9999997
992,231449399.99999977
1016,231449399.99999977
1496,64001194.570317167
1532,57764642.17263899
1556,57764642.17263899
2227,17846664.143663844
2365,6236552.397678172
4121,289.889488016973
4133,54.492222078632398
4170,146.49394504991597
4230,0.0
4243,0.0
4354,379936997.0018628
4480,0.0
2,1, 7,21, 0,15, 0.00,60.00,SummerDesignDay
10,897489519.6717961
46,249737579.99999974
70,96701579.99999997
345,153035999.9999997
992,231449399.99999977
1016,231449399.99999977
1496,64073393.17276783
1532,57764642.17263899
1556,57764642.17263899
2227,18564402.172600215
2365,6308751.000128843
4121,297.5386453161773
4133,55.74302270683855
4170,146.49394504991597
4230,0.0
4243,0.0
4354,397737839.9605504
4480,0.0
2,1, 7,21, 0,16, 0.00,60.00,SummerDesignDay
10,897777403.2866507
46,249737579.99999974
70,96701579.99999997
345,153035999.9999997
992,231449399.99999977
1016,231449399.99999977
1496,63804018.07785392
1532,57764642.17263899
1556,57764642.17263899
2227,17661715.45074988
2365,6039375.905214926
4121,301.672123995806
4133,56.862293263053178
4170,146.49394504991597
4230,0.0
4243,0.0
4354,398928406.16377678
4480,0.0
2,1, 7,21, 0,17, 0.00,60.00,SummerDesignDay
10,880776651.0846109
46,249737579.99999974
70,96701579.99999997
345,153035999.9999997
992,231449399.99999977
1016,231449399.99999977
1496,64143717.56423803
1532,57764642.17263899
1556,57764642.17263899
2227,17660816.973822688
2365,6357032.665468087
4121,299.2691402815096
4133,56.88844814577094
4170,146.49394504991597
4230,22042.72613094894
4243,0.0
4354,381928554.84164807
4480,0.0
2,1, 7,21, 0,18, 0.00,60.00,SummerDesignDay
10,853639205.0210254
46,249737579.99999974
70,96701579.99999997
345,153035999.9999997
992,231449399.99999977
1016,231449399.99999977
1496,64043138.92024697
1532,57764642.17263899
1556,57764642.17263899
2227,18124089.024109223
2365,6094698.558129427
4121,292.6091898059069
4133,56.30513159146696
4170,146.49394504991597
4230,183798.18947855364
4243,0.0
4354,354327843.3877261
4480,0.0
2,1, 7,21, 0,19, 0.00,60.00,SummerDesignDay
10,809152474.0428209
46,249737579.99999974
70,96701579.99999997
345,153035999.9999997
992,231449399.99999977
1016,231449399.99999977
1496,64436644.69512448
1532,57764642.17263899
1556,57764642.17263899
2227,18287625.16094245
2365,6253091.9968947
4121,281.0847967730972
4133,54.472976747867267
4170,146.49394504991597
4230,418910.52559078249
4243,0.0
4354,309677587.7970815
4480,0.0
2,1, 7,21, 0,20, 0.00,60.00,SummerDesignDay
10,750553750.526269
46,249737579.99999974
70,96701579.99999997
345,153035999.9999997
992,231449399.99999977
1016,231449399.99999977
1496,64783462.813360277
1532,57764642.17263899
1556,57764642.17263899
2227,17661241.577763734
2365,6292220.291251113
4121,261.2754742378708
4133,52.072310679524139
4170,146.49394504991597
4230,726600.3494701663
4243,0.0
4354,251705267.67303104
4480,0.0
2,1, 7,21, 0,21, 0.00,60.00,SummerDesignDay
10,705303002.3707904
46,249737579.99999974
70,96701579.99999997
345,153035999.9999997
992,231449399.99999977
1016,231449399.99999977
1496,64840237.42392336
1532,57764642.17263899
1556,57764642.17263899
2227,17660932.283803278
2365,6055782.048134204
4121,247.52834546390828
4133,50.0856645632835
4170,146.49394504991597
4230,1019813.2031501616
4243,0.0
4354,206454842.55864177
4480,0.0
2,1, 7,21, 0,22, 0.00,60.00,SummerDesignDay
10,640934276.6891956
46,249737579.99999974
70,96701579.99999997
345,153035999.9999997
992,231449399.99999977
1016,231449399.99999977
1496,64122366.115192268
1532,57764642.17263899
1556,57764642.17263899
2227,18400644.284838585
2365,6357723.942553272
4121,231.67924596624966
4133,42.96953818846335
4170,146.49394504991597
4230,0.0
4243,0.0
4354,141346420.72511108
4480,0.0
2,1, 7,21, 0,23, 0.00,60.00,SummerDesignDay
10,608653704.6245867
46,249737579.99999974
70,96701579.99999997
345,153035999.9999997
992,231449399.99999977
1016,231449399.99999977
1496,63842401.88776687
1532,57764642.17263899
1556,57764642.17263899
2227,18012867.854527855
2365,6077759.715127873
4121,224.3600629627715
4133,42.6233072320929
4170,146.49394504991597
4230,0.0
4243,0.0
4354,109453632.40999589
4480,0.0
2,1, 7,21, 0,24, 0.00,60.00,SummerDesignDay
10,581275667.7190516
46,249737579.99999974
70,96701579.99999997
345,153035999.9999997
992,231449399.99999977
1016,231449399.99999977
1496,64034729.113294068
1532,57764642.17263899
1556,57764642.17263899
2227,17660974.47565078
2365,6270086.940655081
4121,218.2014166535717
4133,42.365563684890087
4170,146.49394504991597
4230,0.0
4243,0.0
4354,82427495.04198376
4480,0.0
1,RED-BLUFF-MUNICIPAL-ARPT ANN HTG 99.6% CONDNS DB,  40.15,-122.25,  -8.00, 106.00
2,1, 1,21, 0, 1, 0.00,60.00,WinterDesignDay
10,72223.20365558384
46,0.0
70,0.0
345,0.0
992,0.0
1016,0.0
1496,604752096.026112
1532,0.0
1556,0.0
2227,72000.0
2365,579679.2082582207
4121,223.20365558378439
4133,40.22006281882254
4170,146.49394504991597
4230,604172416.8178537
4243,0.0
4354,0.0
4480,0.0
2,1, 1,21, 0, 2, 0.00,60.00,WinterDesignDay
10,72233.37125214946
46,0.0
70,0.0
345,0.0
992,0.0
1016,0.0
1496,681244124.350451
1532,0.0
1556,0.0
2227,72000.0
2365,833426.0537777685
4121,233.37125214941015
4133,40.220062818822558
4170,146.49394504991597
4230,680410698.2966732
4243,0.0
4354,0.0
4480,0.0
2,1, 1,21, 0, 3, 0.00,60.00,WinterDesignDay
10,72241.17492736972
46,0.0
70,0.0
345,0.0
992,0.0
1016,0.0
1496,749266645.5167866
1532,0.0
1556,0.0
2227,72000.0
2365,833372.260113105
4121,241.17492736966774
4133,40.220062818822558
4170,146.49394504991597
4230,748433273.2566733
4243,0.0
4354,0.0
4480,0.0
2,1, 1,21, 0, 4, 0.00,60.00,WinterDesignDay
10,72247.17844461724
46,0.0
70,0.0
345,0.0
992,0.0
1016,0.0
1496,810657639.8328552
1532,0.0
1556,0.0
2227,72000.0
2365,833413.0287646682
4121,247.17844461719023
4133,40.220062818822558
4170,146.49394504991597
4230,809824226.8040907
4243,0.0
4354,0.0
4480,0.0
2,1, 1,21, 0, 5, 0.00,60.00,WinterDesignDay
10,72251.63925331783
46,0.0
70,0.0
345,0.0
992,0.0
1016,0.0
1496,854088079.3262744
1532,0.0
1556,0.0
2227,72000.0
2365,833295.4372784831
4121,251.63925331776989
4133,40.220062818822558
4170,146.49394504991597
4230,853254783.8889959
4243,0.0
4354,0.0
4480,0.0
2,1, 1,21, 0, 6, 0.00,60.00,WinterDesignDay
10,6131894.347507975
46,0.0
70,0.0
345,0.0
992,0.0
1016,0.0
1496,1058587814.4296067
1532,0.0
1556,0.0
2227,72000.0
2365,670150.0893083506
4121,278.9520661830279
4133,64.72745533950844
4170,146.49394504991597
4230,1057917664.3402982
4243,0.0
4354,6059615.395441792
4480,0.0
2,1, 1,21, 0, 7, 0.00,60.00,WinterDesignDay
10,7580652.516907377
46,0.0
70,0.0
345,0.0
992,0.0
1016,0.0
1496,1920524035.4126716
1532,0.0
1556,0.0
2227,72000.0
2365,743024.7009967562
4121,415.0685594393414
4133,107.74006906486687
4170,146.49394504991597
4230,1919781010.7116748
4243,0.0
4354,7508237.448347938
4480,0.0
2,1, 1,21, 0, 8, 0.00,60.00,WinterDesignDay
10,72332.76586503205
46,0.0
70,0.0
345,0.0
992,0.0
1016,0.0
1496,1649339950.5661107
1532,0.0
1556,0.0
2227,72000.0
2365,833487.5349862474
4121,332.7658650319759
4133,43.22079778094211
4170,146.49394504991597
4230,1648506463.0311244
4243,0.0
4354,0.0
4480,0.0
2,1, 1,21, 0, 9, 0.00,60.00,WinterDesignDay
10,72312.82042154366
46,0.0
70,0.0
345,0.0
992,0.0
1016,0.0
1496,1483150586.9294739
1532,0.0
1556,0.0
2227,72000.0
2365,833339.8889424523
4121,312.82042154357517
4133,41.1559814842572
4170,146.49394504991597
4230,1482317247.0405312
4243,0.0
4354,0.0
4480,0.0
2,1, 1,21, 0,10, 0.00,60.00,WinterDesignDay
10,72302.90398545018
46,0.0
70,0.0
345,0.0
992,0.0
1016,0.0
1496,1397982555.412365
1532,0.0
1556,0.0
2227,72000.0
2365,833380.8759117068
4121,302.90398545011535
4133,40.58556510778042
4170,146.49394504991597
4230,1397149174.5364533
4243,0.0
4354,0.0
4480,0.0
2,1, 1,21, 0,11, 0.00,60.00,WinterDesignDay
10,72296.91734670209
46,0.0
70,0.0
345,0.0
992,0.0
1016,0.0
1496,1345593603.8571525
1532,0.0
1556,0.0
2227,72000.0
2365,833292.1637319871
4121,296.9173467020228
4133,40.41306421385145
4170,146.49394504991597
4230,1344760311.6934205
4243,0.0
4354,0.0
4480,0.0
2,1, 1,21, 0,12, 0.00,60.00,WinterDesignDay
10,72292.93883625347
46,0.0
70,0.0
345,0.0
992,0.0
1016,0.0
1496,1310652339.4219375
1532,0.0
1556,0.0
2227,72000.0
2365,579602.1283196241
4121,292.9388362534
4133,40.333048361736228
4170,146.49394504991597
4230,1310072737.293618
4243,0.0
4354,0.0
4480,0.0
2,1, 1,21, 0,13, 0.00,60.00,WinterDesignDay
10,72290.1868021147
46,0.0
70,0.0
345,0.0
992,0.0
1016,0.0
1496,1286710719.1069384
1532,0.0
1556,0.0
2227,72000.0
2365,833383.6136039837
4121,290.1868021146423
4133,40.28215301125206
4170,146.49394504991597
4230,1285877335.4933344
4243,0.0
4354,0.0
4480,0.0
2,1, 1,21, 0,14, 0.00,60.00,WinterDesignDay
10,72288.24462503458
46,0.0
70,0.0
345,0.0
992,0.0
1016,0.0
1496,1269464447.1630495
1532,0.0
1556,0.0
2227,72000.0
2365,833425.0579122194
4121,288.2446250345214
4133,40.25382466552449
4170,146.49394504991597
4230,1268631022.105137
4243,0.0
4354,0.0
4480,0.0
2,1, 1,21, 0,15, 0.00,60.00,WinterDesignDay
10,72286.88360061594
46,0.0
70,0.0
345,0.0
992,0.0
1016,0.0
1496,1257172864.8590756
1532,0.0
1556,0.0
2227,72000.0
2365,833321.1649091514
4121,286.8836006158736
4133,40.24298366121165
4170,146.49394504991597
4230,1256339543.6941667
4243,0.0
4354,0.0
4480,0.0
2,1, 1,21, 0,16, 0.00,60.00,WinterDesignDay
10,72285.90260678416
46,0.0
70,0.0
345,0.0
992,0.0
1016,0.0
1496,1248306283.2306014
1532,0.0
1556,0.0
2227,72000.0
2365,833348.5960057727
4121,285.9026067840926
4133,40.2364296656749
4170,146.49394504991597
4230,1247472934.6345955
4243,0.0
4354,0.0
4480,0.0
2,1, 1,21, 0,17, 0.00,60.00,WinterDesignDay
10,72285.18970963401
46,0.0
70,0.0
345,0.0
992,0.0
1016,0.0
1496,1241745971.4051157
1532,0.0
1556,0.0
2227,72000.0
2365,833388.7607948664
4121,285.18970963396449
4133,40.232065076134009
4170,146.49394504991597
4230,1240912582.644321
4243,0.0
4354,0.0
4480,0.0
2,1, 1,21, 0,18, 0.00,60.00,WinterDesignDay
10,72284.67309324557
46,0.0
70,0.0
345,0.0
992,0.0
1016,0.0
1496,1236688386.4569989
1532,0.0
1556,0.0
2227,72000.0
2365,579580.6323886046
4121,284.67309324551879
4133,40.22882204746276
4170,146.49394504991597
4230,1236108805.8246103
4243,0.0
4354,0.0
4480,0.0
2,1, 1,21, 0,19, 0.00,60.00,WinterDesignDay
10,72284.31049306784
46,0.0
70,0.0
345,0.0
992,0.0
1016,0.0
1496,1233479370.4372385
1532,0.0
1556,0.0
2227,72000.0
2365,833354.1049804782
4121,284.3104930677827
4133,40.2266420215756
4170,146.49394504991597
4230,1232646016.3322578
4243,0.0
4354,0.0
4480,0.0
2,1, 1,21, 0,20, 0.00,60.00,WinterDesignDay
10,72284.04035301155
46,0.0
70,0.0
345,0.0
992,0.0
1016,0.0
1496,1231005815.4528132
1532,0.0
1556,0.0
2227,72000.0
2365,833392.9005129277
4121,284.0403530114813
4133,40.22550135339627
4170,146.49394504991597
4230,1230172422.5523003
4243,0.0
4354,0.0
4480,0.0
2,1, 1,21, 0,21, 0.00,60.00,WinterDesignDay
10,72283.83960809968
46,0.0
70,0.0
345,0.0
992,0.0
1016,0.0
1496,1229026339.7468916
1532,0.0
1556,0.0
2227,72000.0
2365,833433.5302591827
4121,283.8396080996348
4133,40.22497720001479
4170,146.49394504991597
4230,1228192906.2166324
4243,0.0
4354,0.0
4480,0.0
2,1, 1,21, 0,22, 0.00,60.00,WinterDesignDay
10,846483.1808060837
46,0.0
70,0.0
345,0.0
992,0.0
1016,0.0
1496,1018926295.1603949
1532,0.0
1556,0.0
2227,846199.4949255105
2365,833470.1798857173
4121,283.6858805736717
4133,40.22456970339001
4170,146.49394504991597
4230,1018092824.9805092
4243,0.0
4354,0.0
4480,0.0
2,1, 1,21, 0,23, 0.00,60.00,WinterDesignDay
10,72187.42096626591
46,0.0
70,0.0
345,0.0
992,0.0
1016,0.0
1496,436146868.08524629
1532,0.0
1556,0.0
2227,72000.0
2365,773297.9083183
4121,187.42096626586267
4133,40.23809715361507
4170,146.49394504991597
4230,435373570.176928
4243,0.0
4354,0.0
4480,0.0
2,1, 1,21, 0,24, 0.00,60.00,WinterDesignDay
10,72207.63183600935
46,0.0
70,0.0
345,0.0
992,0.0
1016,0.0
1496,593403690.170005
1532,0.0
1556,0.0
2227,72000.0
2365,639707.5819798568
4121,207.63183600927699
4133,40.36683390286183
4170,146.49394504991597
4230,592763982.5880251
4243,0.0
4354,0.0
4480,0.0
1,RED-BLUFF-MUNICIPAL-ARPT AUG CLG 0.4% CONDNS DB=>MCWB,  40.15,-122.25,  -8.00, 106.00
2,1, 8,21, 0, 1, 0.00,60.00,SummerDesignDay
10,757576661.9810249
46,249737579.99999974
70,96701579.99999997
345,153035999.9999997
992,231449399.99999977
1016,231449399.99999977
1496,63679941.76405814
1532,57764642.17263899
1556,57764642.17263899
2227,17482774.144792439
2365,5915299.591419152
4121,253.10166766400588
4133,40.32713132570231
4170,146.49394504991597
4230,0.0
4243,0.0
4354,258906654.73456494
4480,0.0
2,1, 8,21, 0, 2, 0.00,60.00,SummerDesignDay
10,745068006.1202333
46,249737579.99999974
70,96701579.99999997
345,153035999.9999997
992,231449399.99999977
1016,231449399.99999977
1496,63966629.12066467
1532,57764642.17263899
1556,57764642.17263899
2227,17483446.029803005
2365,6201986.948025686
4121,250.68129735347277
4133,40.343397812040638
4170,146.49394504991597
4230,0.0
4243,0.0
4354,246397329.40913297
4480,0.0
2,1, 8,21, 0, 3, 0.00,60.00,SummerDesignDay
10,736553910.9996522