Program Version,EnergyPlus, Version 9.0.1-bb7ca4f0da, YMD=2019.12.17 18:54
1,5,Environment Title[],Latitude[deg],Longitude[deg],Time Zone[],Elevation[m]
2,8,Day of Simulation[],Month[],Day of Month[],DST Indicator[1=yes 0=no],Hour[],StartMinute[],EndMinute[],DayType
3,5,Cumulative Day of Simulation[],Month[],Day of Month[],DST Indicator[1=yes 0=no],DayType  ! When Daily Meters Requested
4,2,Cumulative Days of Simulation[],Month[]  ! When Monthly Meters Requested
5,1,Cumulative Days of Simulation[] ! When Run Period Meters Requested
6,1,Calendar Year of Simulation[] ! When Annual Meters Requested
1533,1,InteriorEquipment:Gas [J] !Hourly
4355,1,Cooling:Electricity [J] !Hourly
4244,1,Heating:Electricity [J] !Hourly
2228,1,WaterSystems:Electricity [J] !Hourly
11,1,Electricity:Facility [J] !Hourly
47,1,InteriorLights:Electricity [J] !Hourly
993,1,InteriorEquipment:Electricity [J] !Hourly
4122,1,Fans:Electricity [J] !Hourly
4480,1,Pumps:Electricity [J] !Hourly
1497,1,Gas:Facility [J] !Hourly
4231,1,Heating:Gas [J] !Hourly
2366,1,WaterSystems:Gas [J] !Hourly
1017,1,Receptacle:InteriorEquipment:Electricity [J] !Hourly
1557,1,Receptacle:InteriorEquipment:Gas [J] !Hourly
71,1,ComplianceLtg:InteriorLights:Electricity [J] !Hourly
346,1,NonComplianceLtg:InteriorLights:Electricity [J] !Hourly
4134,1,General:Fans:Electricity [J] !Hourly
4171,1,ProcessMotors:Fans:Electricity [J] !Hourly
End of Data Dictionary
1,SACRAMENTO-EXECUTIVE_724830_CZ2010,  38.50,-121.50,  -8.00,   5.00
2,1, 1, 1, 0, 1, 0.00,60.00,Holiday
11,55711530.45369847
47,24156278.99999996
71,4835078.999999999
346,19321199.999999968
993,18722069.99999997
1017,18722069.99999997
1497,1043220.3701962587
1533,0.0
1557,0.0
2228,800044.4900827627
2366,1043220.3701962587
4122,12033136.963615733
4134,8488078.333418435
4171,3545058.6301972984
4231,0.0
4244,0.0
4355,0.0
4480,0.0
2,1, 1, 1, 0, 2, 0.00,60.00,Holiday
11,56511452.913546208
47,24156278.99999996
71,4835078.999999999
346,19321199.999999968
993,18722069.99999997
1017,18722069.99999997
1497,1043341.2518104755
1533,0.0
1557,0.0
2228,1599966.9499305024
2366,1043341.2518104755
4122,12033136.963615733
4134,8488078.333418435
4171,3545058.6301972984
4231,0.0
4244,0.0
4355,0.0
4480,0.0
2,1, 1, 1, 0, 3, 0.00,60.00,Holiday
11,56511289.40627359
47,24156278.99999996
71,4835078.999999999
346,19321199.999999968
993,18722069.99999997
1017,18722069.99999997
1497,1304060.3376267388
1533,0.0
1557,0.0
2228,1599803.442657891
2366,1304060.3376267388
4122,12033136.963615733
4134,8488078.333418435
4171,3545058.6301972984
4231,0.0
4244,0.0
4355,0.0
4480,0.0
2,1, 1, 1, 0, 4, 0.00,60.00,Holiday
11,56497910.42261862
47,24156278.99999996
71,4835078.999999999
346,19321199.999999968
993,18722069.99999997
1017,18722069.99999997
1497,1037880.4666872993
1533,0.0
1557,0.0
2228,1586424.4590029203
2366,1037880.4666872993
4122,12033136.963615733
4134,8488078.333418435
4171,3545058.6301972984
4231,0.0
4244,0.0
4355,0.0
4480,0.0
2,1, 1, 1, 0, 5, 0.00,60.00,Holiday
11,57611698.20305243
47,24156278.99999996
71,4835078.999999999
346,19321199.999999968
993,18722069.99999997
1017,18722069.99999997
1497,1211466.9086667789
1533,0.0
1557,0.0
2228,793169.9802551355
2366,1038131.3743413304
4122,13930556.398590275
4134,10385497.768392979
4171,3545058.6301972984
4231,173335.5343254485
4244,31.034002945315789
4355,0.0
4480,9591.790204102872
2,1, 1, 1, 0, 6, 0.00,60.00,Holiday
11,117406615.83611158
47,52754678.99999992
71,4835078.999999999
346,47919599.99999992
993,47320469.999999929
1017,47320469.999999929
1497,31775255.301505474
1533,0.0
1557,0.0
2228,1586646.8000822855
2366,1306101.076714518
4122,15705155.085346435
4134,12160096.455149137
4171,3545058.6301972984
4231,30469154.224790954
4244,5455.198933290027
4355,0.0
4480,34209.75174957499
2,1, 1, 1, 0, 7, 0.00,60.00,Holiday
11,175841724.20040614
47,74203478.99999988
71,4835078.999999999
346,69368399.9999999
993,68769269.9999999
1017,68769269.9999999
1497,370798834.6999142
1533,28597212.921243654
1557,28597212.921243654
2228,1599605.6233981834
2366,1043405.2449389473
4122,31229353.38982837
4134,15093045.468027648
4171,3545058.6301972984
4231,341158216.5337316
4244,6418.254243098445
4355,0.0
4480,33597.932936592595
2,1, 1, 1, 0, 8, 0.00,60.00,Holiday
11,171021961.68763686
47,74201021.66164673
71,4832621.661646834
346,69368399.9999999
993,68769269.9999999
1017,68769269.9999999
1497,257117610.84600748
1533,28597212.921243654
1557,28597212.921243654
2228,2461714.8631698556
2366,1324120.8600111479
4122,25549984.94588147
4134,14150784.622917057
4171,3545058.6301972984
4231,227196277.06475265
4244,6567.472184269555
4355,0.0
4480,33402.744754563704
2,1, 1, 1, 0, 9, 0.00,60.00,Holiday
11,189091082.8748778
47,77869827.4972232
71,8501427.497223326
346,69368399.9999999
993,72641339.99999988
1017,72641339.99999988
1497,594521523.9341467
1533,0.0
1557,0.0
2228,2505261.40961549
2366,1337806.4777429926
4122,34713152.1430246
4134,24352648.7021573
4171,3545058.6301972984
4231,593183717.4564036
4244,95490.34251042422
4355,0.0
4480,1266011.4825041304
2,1, 1, 1, 0,10, 0.00,60.00,Holiday
11,180282956.3065326
47,77828910.16524345
71,8460510.165243574
346,69368399.9999999
993,72641339.99999988
1017,72641339.99999988
1497,476077537.63369956
1533,0.0
1557,0.0
2228,2550740.8252395519
2366,1360456.6713350816
4122,26958554.400413909
4134,16549259.582984623
4171,3545058.6301972984
4231,474717080.96236446
4244,65346.95011454767
4355,0.0
4480,238063.96552115255
2,1, 1, 1, 0,11, 0.00,60.00,Holiday
11,186862941.16637347
47,78229150.21988473
71,30309550.219884769
346,47919599.99999992
993,74424959.99999996
1017,74424959.99999996
1497,442597698.32582226
1533,0.0
1557,0.0
2228,5894798.474980516
2366,2234969.5767491485
4122,28197441.91150622
4134,16406069.558723979
4171,3545058.6301972984
4231,440362728.749073
4244,47549.495315008404
4355,0.0
4480,69041.06468698717
2,1, 1, 1, 0,12, 0.00,60.00,Holiday
11,186430125.17731116
47,78028628.63419378
71,30109028.634193824
346,47919599.99999992
993,74424959.99999996
1017,74424959.99999996
1497,431937618.7393539
1533,11438885.168497468
1557,11438885.168497468
2228,6020174.866574897
2366,2192418.469536028
4122,27859723.336602257
4134,16405848.778794568
4171,3545058.6301972984
4231,418306315.1013204
4244,44139.73586315637
4355,0.0
4480,52498.60407713246
2,1, 1, 1, 0,13, 0.00,60.00,Holiday
11,212841463.66718716
47,88265083.6757778
71,40345483.6757778
346,47919599.99999992
993,89913239.99999997
1017,89913239.99999997
1497,375029460.07490256
1533,11438885.168497468
1557,11438885.168497468
2228,7417584.838970812
2366,2456354.802124042
4122,27173617.679371157
4134,16405848.778794568
4171,3545058.6301972984
4231,361134220.104281
4244,34574.68419813238
4355,0.0
4480,37362.78886931353
2,1, 1, 1, 0,14, 0.00,60.00,Holiday
11,211855027.93888945
47,88456801.29182247
71,40537201.29182249
346,47919599.99999992
993,89913239.99999997
1017,89913239.99999997
1497,314373822.6122359
1533,0.0
1557,0.0
2228,7418262.870652204
2366,2475491.8983631355
4122,26003456.582649128
4134,16405848.778794568
4171,3545058.6301972984
4231,311898330.71387276
4244,29955.309087442365
4355,0.0
4480,33311.88467824444
2,1, 1, 1, 0,15, 0.00,60.00,Holiday
11,211602242.08497883
47,88814410.58572668
71,40894810.58572668
346,47919599.99999992
993,89913239.99999997
1017,89913239.99999997
1497,290567965.382074
1533,0.0
1557,0.0
2228,7255080.136570832
2366,2427231.720058538
4122,25560868.841139456
4134,16405848.778794568
4171,3545058.6301972984
4231,288140733.66201546
4244,27189.681033467445
4355,0.0
4480,31452.840508415546
2,1, 1, 1, 0,16, 0.00,60.00,Holiday
11,211456003.33061797
47,89011702.9215002
71,41092102.92150022
346,47919599.99999992
993,89913239.99999997
1017,89913239.99999997
1497,274027161.7317155
1533,0.0
1557,0.0
2228,7334587.629068693
2366,2137893.7725131597
4122,25139544.36147748
4134,16405848.778794568
4171,3545058.6301972984
4231,271889267.9592023
4244,25963.39790899818
4355,0.0
4480,30965.020662579034
2,1, 1, 1, 0,17, 0.00,60.00,Holiday
11,211726495.14172847
47,89679419.09397859
71,41759819.09397861
346,47919599.99999992
993,89913239.99999997
1017,89913239.99999997
1497,275888120.3253224
1533,28597212.921243654
1557,28597212.921243654
2228,7500894.019453099
2366,2446735.0294237358
4122,24579026.998494518
4134,16405848.778794568
4171,3545058.6301972984
4231,244844172.374655
4244,23642.395129025783
4355,0.0
4480,30272.634673214692
2,1, 1, 1, 0,18, 0.00,60.00,Holiday
11,184024708.89028157
47,78647111.99999994
71,30727511.99999999
346,47919599.99999992
993,74424959.99999996
1017,74424959.99999996
1497,299381358.66710808
1533,28597212.921243654
1557,28597212.921243654
2228,6367716.65742496
2366,2415732.4935127708
4122,24524874.658027218
4134,16405848.778794568
4171,3545058.6301972984
4231,268368413.25235165
4244,28488.819281588192
4355,0.0
4480,31556.755547887624
2,1, 1, 1, 0,19, 0.00,60.00,Holiday
11,233355725.65988303
47,106749035.99999982
71,15931835.999999995
346,90817199.99999984
993,101834279.99999984
1017,101834279.99999984
1497,235639331.05625309
1533,28597212.921243654
1557,28597212.921243654
2228,5523201.248663122
2366,2007896.6663591713
4122,19181164.73903151
4134,14537981.359245034
4171,3545058.6301972984
4231,205034221.46865026
4244,33185.968989143665
4355,0.0
4480,34857.703199461524
2,1, 1, 1, 0,20, 0.00,60.00,Holiday
11,261046776.46387435
47,124250678.9999998
71,4835078.999999999
346,119415599.9999998
993,118816469.99999982
1017,118816469.99999982
1497,6370940.568144169
1533,0.0
1557,0.0
2228,5753624.762116361
2366,1989903.3558980972
4122,12226002.70175821
4134,8488078.333418435
4171,3545058.6301972984
4231,4381037.212246072
4244,0.0
4355,0.0
4480,0.0
2,1, 1, 1, 0,21, 0.00,60.00,Holiday
11,287416651.1664736
47,138549878.9999998
71,4835078.999999999
346,133714799.99999979
993,133115669.99999979
1017,133115669.99999979
1497,3292190.7762345599
1533,0.0
1557,0.0
2228,3648467.031108686
2366,1722980.682309693
4122,12102635.135365218
4134,8488078.333418435
4171,3545058.6301972984
4231,1569210.0939248664
4244,0.0
4355,0.0
4480,0.0
2,1, 1, 1, 0,22, 0.00,60.00,Holiday
11,258723538.4045439
47,124250678.9999998
71,4835078.999999999
346,119415599.9999998
993,118816469.99999982
1017,118816469.99999982
1497,5295087.636017046
1533,0.0
1557,0.0
2228,3463575.179538388
2366,1648206.0110035323
4122,12192814.22500575
4134,8488078.333418435
4171,3545058.6301972984
4231,3646881.6250135146
4244,0.0
4355,0.0
4480,0.0
2,1, 1, 1, 0,23, 0.00,60.00,Holiday
11,200365375.93919695
47,95652278.99999984
71,4835078.999999999
346,90817199.99999984
993,90218069.99999985
1017,90218069.99999985
1497,1061852.3501826192
1533,0.0
1557,0.0
2228,2461889.9755814156
2366,1061852.3501826192
4122,12033136.963615733
4134,8488078.333418435
4171,3545058.6301972984
4231,0.0
4244,0.0
4355,0.0
4480,0.0
2,1, 1, 1, 0,24, 0.00,60.00,Holiday
11,112901557.23656859
47,52754678.99999992
71,4835078.999999999
346,47919599.99999992
993,47320469.999999929
1017,47320469.999999929
1497,1297551.155069152
1533,0.0
1557,0.0
2228,793271.2729528856
2366,1297551.155069152
4122,12033136.963615733
4134,8488078.333418435
4171,3545058.6301972984
4231,0.0
4244,0.0
4355,0.0
4480,0.0
2,2, 1, 2, 0, 1, 0.00,60.00,Friday
11,56471850.715081039
47,24156278.99999996
71,4835078.999999999
346,19321199.999999968
993,18722069.99999997
1017,18722069.99999997
1497,1029727.7605797293
1533,0.0
1557,0.0
2228,1560364.7514653279
2366,1029727.7605797293
4122,12033136.963615733
4134,8488078.333418435
4171,3545058.6301972984
4231,0.0
4244,0.0
4355,0.0
4480,0.0
2,2, 1, 2, 0, 2, 0.00,60.00,Friday
11,55698107.62181206
47,24156278.99999996
71,4835078.999999999
346,19321199.999999968
993,18722069.99999997
1017,18722069.99999997
1497,1034847.4167753107
1533,0.0
1557,0.0
2228,786621.6581963527
2366,1034847.4167753107
4122,12033136.963615733
4134,8488078.333418435
4171,3545058.6301972984
4231,0.0
4244,0.0
4355,0.0
4480,0.0
2,2, 1, 2, 0, 3, 0.00,60.00,Friday
11,55710016.06763171
47,24156278.99999996
71,4835078.999999999
346,19321199.999999968
993,18722069.99999997
1017,18722069.99999997
1497,1307494.4130939637
1533,0.0
1557,0.0
2228,786655.2089867942
2366,1035021.6503350568
4122,12045011.858644939
4134,8488078.333418435
4171,3545058.6301972984
4231,272472.7627589068
4244,0.0
4355,0.0
4480,0.0
2,2, 1, 2, 0, 4, 0.00,60.00,Friday
11,60369007.80440429
47,24156278.99999996
71,4835078.999999999
346,19321199.999999968
993,18722069.99999997
1017,18722069.99999997
1497,3817411.189721138
1533,0.0
1557,0.0
2228,1560316.811075532
2366,1029988.6738385439
4122,15911091.153484129
4134,12273855.977777144
4171,3545058.6301972984
4231,2787422.5158825947
4244,106.03318151467286
4355,0.0
4480,19144.806663142488
2,2, 1, 2, 0, 5, 0.00,60.00,Friday
11,59838297.68243088
47,24156278.99999996
71,4835078.999999999
346,19321199.999999968
993,18722069.99999997
1017,18722069.99999997
1497,11231931.304130394
1533,0.0
1557,0.0
2228,780215.5271405925
2366,1030021.3198938737
4122,16160443.546171088
4134,12282917.20336752
4171,3545058.6301972984
4231,10201909.98423652
4244,376.15382957610907
4355,0.0
4480,18913.455289654416
2,2, 1, 2, 0, 6, 0.00,60.00,Friday
11,124414799.31118219
47,53890838.99999992
71,5971238.999999999
346,47919599.99999992
993,47871269.999999929
1017,47871269.999999929
1497,213460088.88034205
1533,0.0
1557,0.0
2228,780184.8780782287
2366,1036873.5802435046
4122,21489946.456425236
4134,17659620.259380439
4171,3545058.630197298
4231,212423215.30009855
4244,40525.60621034261
4355,0.0
4480,342033.3704684164
2,2, 1, 2, 0, 7, 0.00,60.00,Friday
11,203963150.8161092
47,80361638.99999988
71,5971238.999999999
346,74390399.99999988
993,69320069.9999999
1017,69320069.9999999
1497,1133154032.7066398
1533,28597212.921243654
1557,28597212.921243654
2228,780268.0302829139
2366,1196341.9686925177
4122,51351160.30010536
4134,25821790.47098799
4171,3545058.6301972984
4231,1103360477.8167036
4244,130308.34687822103
4355,0.0
4480,2019705.1388429187
2,2, 1, 2, 0, 8, 0.00,60.00,Friday
11,215984892.21504585
47,95984982.18643244
71,21594582.186432568
346,74390399.99999988
993,83139479.99999988
1017,83139479.99999988
1497,749322017.2481629
1533,28882321.086319496
1557,28882321.086319496
2228,3431876.104380649
2366,1794456.2331455779
4122,32736457.512467058
4134,16575182.830693746
4171,3545058.6301972984
4231,718645239.9286978
4244,93734.47609243859
4355,0.0
4480,598361.9356733197
2,2, 1, 2, 0, 9, 0.00,60.00,Friday
11,273603440.22227969
47,125807105.97488487
71,51416705.974884998
346,74390399.99999988
993,112981499.99999987
1017,112981499.99999987
1497,561485932.2647902
1533,285108.16507584266
1557,285108.16507584266
2228,4628192.224009704
2366,2450901.9131572369
4122,29959957.151075059
4134,16405848.778794568
4171,3545058.6301972984
4231,558749922.1865572
4244,67383.0490737847
4355,0.0
4480,159301.82323624963
2,2, 1, 2, 0,10, 0.00,60.00,Friday
11,329593566.4742537
47,150824294.37121935
71,76433894.3712194
346,74390399.99999988
993,143958059.99999995
1017,143958059.99999995
1497,454060960.7169143
1533,285108.16507584266
1557,285108.16507584266
2228,6090966.912403706
2366,2769605.9607843968
4122,28595481.162640975
4134,16445455.642897159
4171,3545058.630197298
4231,451006246.5910541
4244,48319.20339321367
4355,0.0
4480,76444.82459653443
2,2, 1, 2, 0,11, 0.00,60.00,Friday
11,290535283.6276206
47,129499311.63351098
71,76557711.63351099
346,52941599.9999999
993,122509259.99999996
1017,122509259.99999996
1497,451289224.8582864
1533,513194.69713651677
1557,513194.69713651677
2228,8990262.635786668
2366,3302221.0688106149
4122,29436916.79747703
4134,16445439.347244807
4171,3545058.6301972984
4231,447473809.09233918
4244,42382.89485839814
4355,0.0
4480,57149.66598756786
2,2, 1, 2, 0,12, 0.00,60.00,Friday
11,290928767.3537737
47,128655883.0860222
71,75714283.08602222
346,52941599.9999999
993,122509259.99999996
1017,122509259.99999996
1497,427562277.4905765
1533,11952079.865633984
1557,11952079.865633984
2228,11102768.69645974
2366,3992317.4628067126
4122,28571430.313724288
4134,16610576.392813582
4171,3545058.6301972984
4231,411617880.16213586
4244,39825.570431951455
4355,0.0
4480,49599.6871354846
2,2, 1, 2, 0,13, 0.00,60.00,Friday
11,291034947.2486653
47,128242341.36298752
71,75300741.36298757
346,52941599.9999999
993,122509259.99999996
1017,122509259.99999996
1497,394932502.16072526
1533,11952079.865633984
1557,11952079.865633984
2228,12682985.724276148
2366,4634962.464203858
4122,27516554.229802129
4134,16635828.877529048
4171,3545058.6301972984
4231,378345459.8308874
4244,38185.062132763065
4355,0.0
4480,45620.86946671339
2,2, 1, 2, 0,14, 0.00,60.00,Friday
11,287865076.0335002
47,127309878.69681746
71,74368278.69681748
346,52941599.9999999
993,122509259.99999996
1017,122509259.99999996
1497,300314663.97823998
1533,513194.69713651677
1557,513194.69713651677
2228,12594304.745143319
2366,4319827.45297258
4122,25384264.532089704
4134,16686637.410717056
4171,3545058.6301972984
4231,295481641.82813087
4244,31351.080826668192
4355,0.0
4480,36016.97862309308
2,2, 1, 2, 0,15, 0.00,60.00,Friday
11,284187025.8327857
47,127672452.58119098
71,74730852.58119099
346,52941599.9999999
993,122509259.99999996
1017,122509259.99999996
1497,241647666.80172033
1533,427662.2476137639
1557,427662.2476137639
2228,10063592.820100595
2366,3636936.6346818127
4122,23882776.56693005
4134,16733060.489597597
4171,3545058.6301972984
4231,237583067.91942475
4244,26898.797273886903
4355,0.0
4480,32045.067290253297
2,2, 1, 2, 0,16, 0.00,60.00,Friday
11,280916020.9387882
47,126227916.83802535
71,73286316.83802536
346,52941599.9999999
993,122509259.99999996
1017,122509259.99999996
1497,203226272.61698777
1533,427662.2476137639
1557,427662.2476137639
2228,9435207.404015173
2366,3152419.1198355376
4122,22687037.286369865
4134,16859625.658225158
4171,3545058.6301972984
4231,199646191.24953849
4244,25411.013295160614
4355,0.0
4480,31188.397082644427
2,2, 1, 2, 0,17, 0.00,60.00,Friday
11,284581962.2324228
47,130067784.78063429
71,77126184.78063432
346,52941599.9999999
993,122509259.99999996
1017,122509259.99999996
1497,233735663.2126608
1533,29024875.168857416
1557,29024875.168857416
2228,9176930.317522137
2366,3646177.194560346
4122,22771517.796564677
4134,16850381.762502999
4171,3545058.6301972984
4231,201064610.849243
4244,25336.686801192467
4355,0.0
4480,31132.650900567212
2,2, 1, 2, 0,18, 0.00,60.00,Friday
11,275072885.1939414
47,123776342.99999996
71,70834742.99999997
346,52941599.9999999
993,118102859.99999997
1017,118102859.99999997
1497,283212551.9692515
1533,29024875.168857416
1557,29024875.168857416
2228,9377600.79909332
2366,3325935.713043045
4122,23752184.629564175
4134,16702392.272843648
4171,3545058.6301972984
4231,250861741.08735103
4244,30215.528320698842
4355,0.0
4480,33681.23696320266
2,2, 1, 2, 0,19, 0.00,60.00,Friday
11,308715530.14562568
47,143344268.99999986
71,47505068.99999999
346,95839199.99999984
993,135564839.99999989
1017,135564839.99999989
1497,249709133.05905117
1533,28597212.921243654
1557,28597212.921243654
2228,8598120.456036285
2366,2930890.7929579487
4122,21131898.03404291
4134,16490517.310937154
4171,3545058.6301972984
4231,218181029.34484957
4244,36107.19460296827
4355,0.0
4480,40295.46094368846
2,2, 1, 2, 0,20, 0.00,60.00,Friday
11,363774674.0307572
47,171942668.99999974
71,47505068.99999999
346,124437599.9999998
993,164163239.99999974
1017,164163239.99999974
1497,218800857.64985375
1533,0.0
1557,0.0
2228,7257171.215439027
2366,2594432.733558582
4122,20323966.3916067
4134,16405848.778794568
4171,3545058.6301972984
4231,216206424.91629518
4244,39837.73043464514
4355,0.0
4480,47789.693277112834
2,2, 1, 2, 0,21, 0.00,60.00,Friday
11,376578410.7701129
47,180270629.9999997
71,41533829.999999988
346,138736799.9999998
993,169616699.99999974
1017,169616699.99999974
1497,257970911.23561935
1533,0.0
1557,0.0
2228,6152953.3137854509
2366,2559883.1382871337
4122,20413257.857532037
4134,16405848.778794568
4171,3545058.6301972984
4231,255411028.09733225
4244,48876.824742937424
4355,0.0
4480,75992.77405273362
2,2, 1, 2, 0,22, 0.00,60.00,Friday
11,295401098.95185288
47,143777915.9999998
71,19340315.999999998
346,124437599.9999998
993,132085079.9999998
1017,132085079.9999998
1497,118075870.8354405
1533,0.0
1557,0.0
2228,4625074.492575852
2366,1718631.0527181957
4122,14866428.941572929
4134,10355945.752967965
4171,3545058.6301972984
4231,116357239.78272231
4244,16668.765194978558
4355,0.0
4480,29930.752509355727
2,2, 1, 2, 0,23, 0.00,60.00,Friday
11,204878052.52201278
47,96788438.99999984
71,5971238.999999999
346,90817199.99999984
993,90768869.99999985
1017,90768869.99999985
1497,105404312.77991611
1533,0.0
1557,0.0
2228,3370501.7106683438
2366,1617599.7698920132
4122,13901004.383165263
4134,10355945.752967965
4171,3545058.630197298
4231,103786713.0100241
4244,18581.97841413322
4355,0.0
4480,30655.449765233134
2,2, 1, 2, 0,24, 0.00,60.00,Friday
11,115643499.9333477
47,52754678.99999992
71,4835078.999999999
346,47919599.99999992
993,47320469.999999929
1017,47320469.999999929
1497,117116042.94843209
1533,0.0
1557,0.0
2228,1613593.03287763
2366,1051014.7544258137
4122,13901004.383165263
4134,10355945.752967965
4171,3545058.6301972984
4231,116065028.19400627
4244,20780.288593670797
4355,0.0
4480,32973.22871115054
2,3, 1, 3, 0, 1, 0.00,60.00,Saturday
11,57406063.387557279
47,24156278.99999996
71,4835078.999999999
346,19321199.999999968
993,18722069.99999997
1017,18722069.99999997
1497,1591119.376748416
1533,0.0
1557,0.0
2228,2483399.033341052
2366,1334151.2946183349
4122,12044315.354216254
4134,8488078.333418435
4171,3545058.630197298
4231,256968.08213008135
4244,0.0
4355,0.0
4480,0.0
2,3, 1, 3, 0, 2, 0.00,60.00,Saturday
11,56927254.22633461
47,24156278.99999996
71,4835078.999999999
346,19321199.999999968
993,18722069.99999997
1017,18722069.99999997
1497,10509475.830857883
1533,0.0
1557,0.0
2228,1641407.8820858033
2366,1327335.1380144526
4122,12407497.344248843
4134,8488078.333418435
4171,3545058.6301972984
4231,9182140.69284343
4244,0.0
4355,0.0
4480,0.0
2,3, 1, 3, 0, 3, 0.00,60.00,Saturday
11,58341151.68719668
47,24156278.99999996
71,4835078.999999999
346,19321199.999999968
993,18722069.99999997
1017,18722069.99999997
1497,45458209.532098177
1533,0.0
1557,0.0
2228,1613702.1922445244
2366,1313636.9793718504
4122,13849100.494952197
4134,8488078.333418435
4171,3545058.6301972984
4231,44144572.55272633
4244,0.0
4355,0.0
4480,0.0
2,3, 1, 3, 0, 4, 0.00,60.00,Saturday
11,59970874.75378828
47,24156278.99999996
71,4835078.999999999
346,19321199.999999968
993,18722069.99999997
1017,18722069.99999997
1497,85258171.36852139
1533,0.0
1557,0.0
2228,1586556.7641567307
2366,1040105.8750318405
4122,15505968.98963157
4134,8488078.333418435
4171,3545058.6301972984
4231,84218065.49348957
4244,0.0
4355,0.0
4480,0.0
2,3, 1, 3, 0, 5, 0.00,60.00,Saturday
11,63410697.52492121
47,24156278.99999996
71,4835078.999999999
346,19321199.999999968
993,18722069.99999997
1017,18722069.99999997
1497,121160543.62426207
1533,0.0
1557,0.0
2228,1586536.9676406058
2366,1040418.4259216777
4122,18936203.744152816
4134,10385497.768392977
4171,3545058.6301972984
4231,120120125.19834039
4244,36.09006251222173
4355,0.0
4480,9571.723065298436
2,3, 1, 3, 0, 6, 0.00,60.00,Saturday
11,128836257.53948868
47,52754678.99999992
71,4835078.999999999
346,47919599.99999992
993,47320469.999999929
1017,47320469.999999929
1497,356371812.98692408
1533,0.0
1557,0.0
2228,793331.0640327422
2366,1309127.511695299
4122,27276910.25985256
4134,18961534.28070078
4171,3545058.6301972984
4231,355062685.4752288
4244,48479.3796644304
4355,0.0
4480,642387.8359389602
2,3, 1, 3, 0, 7, 0.00,60.00,Saturday
11,217975559.6899925
47,80361638.99999988
71,5971238.999999999
346,74390399.99999988
993,69320069.9999999
1017,69320069.9999999
1497,1547368981.1381813
1533,28597212.921243654
1557,28597212.921243654
2228,1599955.7768251096
2366,1071505.4264441352
4122,64252302.59803811
4134,26834903.764078745
4171,3545058.630197298
4231,1517700262.7904938
4244,156401.70991585207
4355,0.0
4480,2285190.605213524
2,3, 1, 3, 0, 8, 0.00,60.00,Saturday
11,205570081.49311105
47,83885100.38616532
71,9494700.386165446
346,74390399.99999988
993,73192139.99999988
1017,73192139.99999988
1497,1126409912.9310847
1533,28597212.921243654
1557,28597212.921243654
2228,4493973.890475895
2366,1964002.5330478058
4122,42383492.48820011
4134,16840595.59710098
4171,3545058.6301972984
4231,1095848697.4767934
4244,131651.82307095605
4355,0.0
4480,1483722.9051987758
2,3, 1, 3, 0, 9, 0.00,60.00,Saturday
11,232860825.0070305
47,100716610.57136576
71,26326210.571365894
346,74390399.99999988
993,90883619.99999987
1017,90883619.99999987
1497,847852834.6081028
1533,285108.16507584266
1557,285108.16507584266
2228,4671131.165107953
2366,2051159.3450542025
4122,35256517.116179388
4134,16440426.687072218
4171,3545058.6301972984
4231,845516567.0979729
4244,110088.51456081664
4355,0.0
4480,1222857.6398165667
2,3, 1, 3, 0,10, 0.00,60.00,Saturday
11,267594007.29150374
47,117936248.83150348
71,43545848.8315036
346,74390399.99999988
993,114116039.99999988
1017,114116039.99999988
1497,593958711.159688
1533,285108.16507584266
1557,285108.16507584266
2228,5778207.58605713
2366,2420899.0870022068
4122,29257064.265567025
4134,16445523.794597693
4171,3545058.6301972984
4231,591252703.9076099
4244,80529.29573222898
4355,0.0
4480,425917.312643864
2,3, 1, 3, 0,11, 0.00,60.00,Saturday
11,266711574.84015463
47,116535176.87873411
71,63593576.87873414
346,52941599.9999999
993,115899659.99999997
1017,115899659.99999997
1497,428214973.4798217
1533,513194.69713651677
1557,513194.69713651677
2228,7956649.102359293
2366,2919615.1365874276
4122,26127306.267894374
4134,16519944.684895708
4171,3545058.630197298
4231,424782163.64609768
4244,56844.16840739724
4355,0.0
4480,135938.4227594737
2,3, 1, 3, 0,12, 0.00,60.00,Saturday
11,267316059.35453169
47,116502025.09930687
71,63560425.09930688
346,52941599.9999999
993,115899659.99999997
1017,115899659.99999997
1497,324168080.7841432
1533,11952079.865633984
1557,11952079.865633984
2228,11197117.391157035
2366,3356133.267943785
4122,23608859.099902527
4134,16679073.111721456
4171,3545058.6301972984
4231,308859867.65056547
4244,44334.7921577828
4355,0.0
4480,64062.972007485965
2,3, 1, 3, 0,13, 0.00,60.00,Saturday
11,261868945.64993397
47,113064753.04402907
71,60123153.0440291
346,52941599.9999999
993,114247259.99999997
1017,114247259.99999997
1497,268167524.0732493
1533,11952079.865633984
1557,11952079.865633984
2228,12242831.96649085
2366,3664794.4470946176
4122,22228618.17761472
4134,16724261.641241227
4171,3545058.6301972984
4231,252550649.76052068
4244,38878.0421086952
4355,0.0
4480,46604.419690636794
2,3, 1, 3, 0,14, 0.00,60.00,Saturday
11,260464337.0495177
47,113073568.04046932
71,60131968.04046933
346,52941599.9999999
993,114247259.99999997
1017,114247259.99999997
1497,212839644.73995248
1533,513194.69713651677
1557,513194.69713651677
2228,11601783.946309368
2366,3727531.3525095276
4122,21470671.807673847
4134,16821421.895686244
4171,3545058.6301972984
4231,208598918.69030643
4244,33379.12027258153
4355,0.0
4480,37674.13479264363
2,3, 1, 3, 0,15, 0.00,60.00,Saturday
11,258746726.97647468
47,113181107.52451805
71,60239507.52451806
346,52941599.9999999
993,114247259.99999997
1017,114247259.99999997
1497,186041046.73731394
1533,427662.2476137639
1557,427662.2476137639
2228,9954305.211666096
2366,3216174.546766716
4122,21242991.684500673
4134,17032488.843496734
4171,3545058.6301972984
4231,182397209.94293345
4244,29851.362779261923
4355,57711.06264966216
4480,33500.1303609853
2,3, 1, 3, 0,16, 0.00,60.00,Saturday
11,259014128.84481777
47,113490065.70237476
71,60548465.702374789
346,52941599.9999999
993,114247259.99999997
1017,114247259.99999997
1497,170795178.96740348
1533,427662.2476137639
1557,427662.2476137639
2228,9773957.195043289
2366,3126331.357394118
4122,21382363.712032863
4134,17267571.48886543
4171,3545058.6301972984
4231,167241185.36239559
4244,27158.713084477888
4355,61651.83849162209
4480,31671.683790809882
2,3, 1, 3, 0,17, 0.00,60.00,Saturday
11,263446494.75794579
47,117902246.30029066
71,64960646.300290677
346,52941599.9999999
993,114247259.99999997
1017,114247259.99999997
1497,198135090.66551874
1533,29024875.168857416
1557,29024875.168857416
2228,9673947.42196732
2366,3114727.738439672
4122,21564902.12855661
4134,17444147.759416406
4171,3545058.6301972984
4231,165995487.75822164
4244,26804.301751090934
4355,0.0
4480,31334.60538015123
2,3, 1, 3, 0,18, 0.00,60.00,Saturday
11,256236982.75027005
47,111937382.99999996
71,64017782.99999998
346,47919599.99999992
993,113145659.99999997
1017,113145659.99999997
1497,238490789.7179092
1533,28597212.921243654
1557,28597212.921243654
2228,9548013.459727243
2366,2719439.5617948558
4122,21536348.580561639
4134,16975256.763326736
4171,3545058.6301972984
4231,207174137.23487068
4244,33187.26614638206
4355,0.0
4480,36390.443834811136
2,3, 1, 3, 0,19, 0.00,60.00,Saturday
11,283710227.32402518
47,128942549.99999987
71,38125349.999999988
346,90817199.99999984
993,125066699.99999988
1017,125066699.99999988
1497,247483730.10724993
1533,28597212.921243654
1557,28597212.921243654
2228,9311391.101875864
2366,2813536.1728917846
4122,20302696.94052035
4134,16405848.778794568
4171,3545058.630197298
4231,216072981.0131145
4244,39607.44326860407
4355,0.0
4480,47281.83836050018
2,3, 1, 3, 0,20, 0.00,60.00,Saturday
11,306574500.27965679
47,142745273.9999998
71,23329673.999999994
346,119415599.9999998
993,138176819.9999998
1017,138176819.9999998
1497,206699625.13879208
1533,0.0
1557,0.0
2228,7273165.219302144
2366,2463103.208780348
4122,18290283.135343519
4134,14537981.359245034
4171,3545058.630197298
4231,204236521.9300117
4244,37881.263081156176
4355,0.0
4480,51076.66193018141
2,3, 1, 3, 0,21, 0.00,60.00,Saturday
11,334113821.19108816
47,157044473.99999977
71,23329673.999999994
346,133714799.99999979
993,152476019.99999977
1017,152476019.99999977
1497,251928145.95802275
1533,0.0
1557,0.0
2228,6029170.525684804
2366,2068631.1586782076
4122,18434753.56384428
4134,14537981.359245034
4171,3545058.6301972984
4231,249859514.79934455
4244,47799.144631373674
4355,0.0
4480,81603.95692788634