Program Version,EnergyPlus, Version 9.0.1-bb7ca4f0da, YMD=2019.12.18 16:44
1,5,Environment Title[],Latitude[deg],Longitude[deg],Time Zone[],Elevation[m]
2,8,Day of Simulation[],Month[],Day of Month[],DST Indicator[1=yes 0=no],Hour[],StartMinute[],EndMinute[],DayType
3,5,Cumulative Day of Simulation[],Month[],Day of Month[],DST Indicator[1=yes 0=no],DayType  ! When Daily Meters Requested
4,2,Cumulative Days of Simulation[],Month[]  ! When Monthly Meters Requested
5,1,Cumulative Days of Simulation[] ! When Run Period Meters Requested
6,1,Calendar Year of Simulation[] ! When Annual Meters Requested
1532,1,InteriorEquipment:Gas [J] !Hourly
46,1,InteriorLights:Electricity [J] !Hourly
4243,1,Heating:Electricity [J] !Hourly
10,1,Electricity:Facility [J] !Hourly
992,1,InteriorEquipment:Electricity [J] !Hourly
4121,1,Fans:Electricity [J] !Hourly
4480,1,Pumps:Electricity [J] !Hourly
4354,1,Cooling:Electricity [J] !Hourly
2227,1,WaterSystems:Electricity [J] !Hourly
1496,1,Gas:Facility [J] !Hourly
4230,1,Heating:Gas [J] !Hourly
2365,1,WaterSystems:Gas [J] !Hourly
1016,1,Receptacle:InteriorEquipment:Electricity [J] !Hourly
1556,1,Receptacle:InteriorEquipment:Gas [J] !Hourly
70,1,ComplianceLtg:InteriorLights:Electricity [J] !Hourly
345,1,NonComplianceLtg:InteriorLights:Electricity [J] !Hourly
4133,1,General:Fans:Electricity [J] !Hourly
4170,1,ProcessMotors:Fans:Electricity [J] !Hourly
End of Data Dictionary
1,PALM-SPRINGS-INTL ANN CLG 0.4% CONDNS DB=>MCWB,  33.83,-116.50,  -8.00, 137.00
2,1, 7,21, 0, 1, 0.00,60.00,SummerDesignDay
10,810138812.4118599
46,249737579.99999974
70,96701579.99999997
345,153035999.9999997
992,231449399.99999977
1016,231449399.99999977
1496,62992999.06656486
1532,57764642.17263899
1556,57764642.17263899
2227,14801300.160251283
2365,5228356.893925879
4121,262.9037747756514
4133,40.307316982005477
4170,146.49394504991597
4230,0.0
4243,0.0
4354,314150269.34783396
4480,0.0
2,1, 7,21, 0, 2, 0.00,60.00,SummerDesignDay
10,799463040.8637526
46,249737579.99999974
70,96701579.99999997
345,153035999.9999997
992,231449399.99999977
1016,231449399.99999977
1496,62992967.48698894
1532,57764642.17263899
1556,57764642.17263899
2227,14800362.219938444
2365,5228325.314349951
4121,261.1194045978657
4133,40.32614408416427
4170,146.49394504991597
4230,0.0
4243,0.0
4354,303475437.52440956
4480,0.0
2,1, 7,21, 0, 3, 0.00,60.00,SummerDesignDay
10,792314460.9142884
46,249737579.99999974
70,96701579.99999997
345,153035999.9999997
992,231449399.99999977
1016,231449399.99999977
1496,62993062.36654769
1532,57764642.17263899
1556,57764642.17263899
2227,14798532.408745997
2365,5228420.1939087
4121,260.02830405568366
4133,40.340133052735108
4170,146.49394504991597
4230,0.0
4243,0.0
4354,296328688.4772384
4480,0.0
2,1, 7,21, 0, 4, 0.00,60.00,SummerDesignDay
10,786115764.9677281
46,249737579.99999974
70,96701579.99999997
345,153035999.9999997
992,231449399.99999977
1016,231449399.99999977
1496,63033670.72640297
1532,57764642.17263899
1556,57764642.17263899
2227,14796654.291876646
2365,5269028.553763977
4121,259.0862773928084
4133,40.35549657647092
4170,146.49394504991597
4230,0.0
4243,0.0
4354,290131871.58957418
4480,0.0
2,1, 7,21, 0, 5, 0.00,60.00,SummerDesignDay
10,781731612.0299413
46,249737579.99999974
70,96701579.99999997
345,153035999.9999997
992,231449399.99999977
1016,231449399.99999977
1496,63111000.462172899
1532,57764642.17263899
1556,57764642.17263899
2227,14794725.981873688
2365,5346358.289533902
4121,258.43446101755867
4133,40.40351257227807
4170,146.49394504991597
4230,0.0
4243,0.0
4354,285749647.61360648
4480,0.0
2,1, 7,21, 0, 6, 0.00,60.00,SummerDesignDay
10,811736756.6818442
46,249737579.99999974
70,96701579.99999997
345,153035999.9999997
992,231449399.99999977
1016,231449399.99999977
1496,63110858.26035985
1532,57764642.17263899
1556,57764642.17263899
2227,14906642.813483779
2365,5346216.0877208639
4121,274.27452925279109
4133,51.25858860983895
4170,146.49394504991597
4230,0.0
4243,0.0
4354,315642859.5938313
4480,0.0
2,1, 7,21, 0, 7, 0.00,60.00,SummerDesignDay
10,897312572.0671196
46,249737579.99999974
70,96701579.99999997
345,153035999.9999997
992,231449399.99999977
1016,231449399.99999977
1496,63110808.58127211
1532,57764642.17263899
1556,57764642.17263899
2227,15131137.294286129
2365,5346166.408633113
4121,330.4493845332756
4133,98.2083527531935
4170,146.49394504991597
4230,0.0
4243,0.0
4354,400994124.3234489
4480,0.0
2,1, 7,21, 0, 8, 0.00,60.00,SummerDesignDay
10,920184357.8972144
46,249737579.99999974
70,96701579.99999997
345,153035999.9999997
992,231449399.99999977
1016,231449399.99999977
1496,63110924.18856189
1532,57764642.17263899
1556,57764642.17263899
2227,15130512.449603182
2365,5346282.015922903
4121,313.58698386356357
4133,71.37429906786773
4170,146.49394504991597
4230,0.0
4243,0.0
4354,423866551.8606273
4480,0.0
2,1, 7,21, 0, 9, 0.00,60.00,SummerDesignDay
10,967937309.609327
46,249737579.99999974
70,96701579.99999997
345,153035999.9999997
992,231449399.99999977
1016,231449399.99999977
1496,62998283.68735624
1532,57764642.17263899
1556,57764642.17263899
2227,15128378.505008715
2365,5233641.514717249
4121,320.00553088263066
4133,66.92325763190167
4170,146.49394504991597
4230,0.0
4243,0.0
4354,471621631.09878739
4480,0.0
2,1, 7,21, 0,10, 0.00,60.00,SummerDesignDay
10,1012940231.3660166
46,249737579.99999974
70,96701579.99999997
345,153035999.9999997
992,231449399.99999977
1016,231449399.99999977
1496,62993158.05380846
1532,57764642.17263899
1556,57764642.17263899
2227,15006738.879159444
2365,5228515.881169472
4121,326.04789595883207
4133,65.56597762235661
4170,146.49394504991597
4230,0.0
4243,0.0
4354,516746186.43896117
4480,0.0
2,1, 7,21, 0,11, 0.00,60.00,SummerDesignDay
10,1050358960.1464261
46,249737579.99999974
70,96701579.99999997
345,153035999.9999997
992,231449399.99999977
1016,231449399.99999977
1496,62993153.819710019
1532,57764642.17263899
1556,57764642.17263899
2227,14801389.623371873
2365,5228511.647071026
4121,329.3118270936672
4133,64.68067887057608
4170,146.49394504991597
4230,0.0
4243,0.0
4354,554370261.2112269
4480,0.0
2,1, 7,21, 0,12, 0.00,60.00,SummerDesignDay
10,1080363031.6470099
46,249737579.99999974
70,96701579.99999997
345,153035999.9999997
992,231449399.99999977
1016,231449399.99999977
1496,63028223.72383552
1532,57764642.17263899
1556,57764642.17263899
2227,14799671.716550578
2365,5263581.551196532
4121,331.92799406060495
4133,64.15471006679307
4170,146.49394504991597
4230,0.0
4243,0.0
4354,584376048.0024653
4480,0.0
2,1, 7,21, 0,13, 0.00,60.00,SummerDesignDay
10,1106979732.9372946
46,249737579.99999974
70,96701579.99999997
345,153035999.9999997
992,231449399.99999977
1016,231449399.99999977
1496,63111020.24351643
1532,57764642.17263899
1556,57764642.17263899
2227,14797852.69770964
2365,5346378.070877438
4121,335.55048732991426
4133,64.07957682205964
4170,146.49394504991597
4230,0.0
4243,0.0
4354,610994564.6890974
4480,0.0
2,1, 7,21, 0,14, 0.00,60.00,SummerDesignDay
10,1135448468.1146994
46,249737579.99999974
70,96701579.99999997
345,153035999.9999997
992,231449399.99999977
1016,231449399.99999977
1496,63110701.679909799
1532,57764642.17263899
1556,57764642.17263899
2227,14795956.486999445
2365,5346059.507270802
4121,343.8653876398163
4133,66.3223233426837
4170,146.49394504991597
4230,0.0
4243,0.0
4354,639465187.7623123
4480,0.0
2,1, 7,21, 0,15, 0.00,60.00,SummerDesignDay
10,1155783916.6633836
46,249737579.99999974
70,96701579.99999997
345,153035999.9999997
992,231449399.99999977
1016,231449399.99999977
1496,63110621.834192309
1532,57764642.17263899
1556,57764642.17263899
2227,14794009.36999914
2365,5345979.661553318
4121,354.3719870242596
4133,70.76033698636438
4170,146.49394504991597
4230,0.0
4243,0.0
4354,659802572.9213971
4480,0.0
2,1, 7,21, 0,16, 0.00,60.00,SummerDesignDay
10,1154362031.8179079
46,249737579.99999974
70,96701579.99999997
345,153035999.9999997
992,231449399.99999977
1016,231449399.99999977
1496,63110781.88611549
1532,57764642.17263899
1556,57764642.17263899
2227,15031185.251751023
2365,5346139.7134765
4121,356.42319296433979
4133,70.75286404253169
4170,146.49394504991597
4230,0.0
4243,0.0
4354,658143510.1429639
4480,0.0
2,1, 7,21, 0,17, 0.00,60.00,SummerDesignDay
10,1129122401.3016575
46,249737579.99999974
70,96701579.99999997
345,153035999.9999997
992,231449399.99999977
1016,231449399.99999977
1496,63003694.88442672
1532,57764642.17263899
1556,57764642.17263899
2227,15131896.323594563
2365,5239052.711787738
4121,348.2620711288451
4133,66.84701594829019
4170,146.49394504991597
4230,0.0
4243,0.0
4354,632803176.7159915
4480,0.0
2,1, 7,21, 0,18, 0.00,60.00,SummerDesignDay
10,1092078814.8117767
46,249737579.99999974
70,96701579.99999997
345,153035999.9999997
992,231449399.99999977
1016,231449399.99999977
1496,62992966.13968539
1532,57764642.17263899
1556,57764642.17263899
2227,15129796.02351402
2365,5228323.967046404
4121,339.0913735241361
4133,64.82200585029344
4170,146.49394504991597
4230,0.0
4243,0.0
4354,595761699.696889
4480,0.0
2,1, 7,21, 0,19, 0.00,60.00,SummerDesignDay
10,1030278914.8496504
46,249737579.99999974
70,96701579.99999997
345,153035999.9999997
992,231449399.99999977
1016,231449399.99999977
1496,62993020.808215077
1532,57764642.17263899
1556,57764642.17263899
2227,15127659.093158113
2365,5228378.63557609
4121,321.3734452008514
4133,61.90349013444752
4170,146.49394504991597
4230,0.0
4243,0.0
4354,533963954.3830471
4480,0.0
2,1, 7,21, 0,20, 0.00,60.00,SummerDesignDay
10,977381999.5089784
46,249737579.99999974
70,96701579.99999997
345,153035999.9999997
992,231449399.99999977
1016,231449399.99999977
1496,63022791.302782889
1532,57764642.17263899
1556,57764642.17263899
2227,14880221.841932094
2365,5258149.130143902
4121,306.6444919912668
4133,59.30970431376816
4170,146.49394504991597
4230,0.0
4243,0.0
4354,481314491.0225543
4480,0.0
2,1, 7,21, 0,21, 0.00,60.00,SummerDesignDay
10,942084486.4808598
46,249737579.99999974
70,96701579.99999997
345,153035999.9999997
992,231449399.99999977
1016,231449399.99999977
1496,63110695.500603947
1532,57764642.17263899
1556,57764642.17263899
2227,14800777.428626147
2365,5346053.327964952
4121,297.49228667716735
4133,57.62863013952889
4170,146.49394504991597
4230,0.0
4243,0.0
4354,446096431.5599471
4480,0.0
2,1, 7,21, 0,22, 0.00,60.00,SummerDesignDay
10,880073150.244179
46,249737579.99999974
70,96701579.99999997
345,153035999.9999997
992,231449399.99999977
1016,231449399.99999977
1496,63111423.20878064
1532,57764642.17263899
1556,57764642.17263899
2227,14799381.532475966
2365,5346781.036141658
4121,278.68914078994978
4133,44.60521521366419
4170,146.49394504991597
4230,0.0
4243,0.0
4354,384086510.022562
4480,0.0
2,1, 7,21, 0,23, 0.00,60.00,SummerDesignDay
10,858003659.9235159
46,249737579.99999974
70,96701579.99999997
345,153035999.9999997
992,231449399.99999977
1016,231449399.99999977
1496,63110266.659455228
1532,57764642.17263899
1556,57764642.17263899
2227,14797457.117597389
2365,5345624.48681624
4121,273.92009239738538
4133,44.352400440812008
4170,146.49394504991597
4230,0.0
4243,0.0
4354,362018948.8858261
4480,0.0
2,1, 7,21, 0,24, 0.00,60.00,SummerDesignDay
10,838963528.241887
46,249737579.99999974
70,96701579.99999997
345,153035999.9999997
992,231449399.99999977
1016,231449399.99999977
1496,63110759.80524153
1532,57764642.17263899
1556,57764642.17263899
2227,14795195.326938048
2365,5346117.63260254
4121,269.91263570965875
4133,44.15220135356909
4170,146.49394504991597
4230,0.0
4243,0.0
4354,342981083.00231316
4480,0.0
1,PALM-SPRINGS-INTL ANN CLG 0.4% CONDNS DP=>MCDB,  33.83,-116.50,  -8.00, 137.00
2,1, 7,21, 0, 1, 0.00,60.00,SummerDesignDay
10,728387768.3883805
46,249737579.99999974
70,96701579.99999997
345,153035999.9999997
992,231449399.99999977
1016,231449399.99999977
1496,62992999.06656486
1532,57764642.17263899
1556,57764642.17263899
2227,14801300.160251283
2365,5228356.893925879
4121,242.73752207103196
4133,40.267249041523289
4170,146.49394504991597
4230,0.0
4243,0.0
4354,232399245.49060736
4480,0.0
2,1, 7,21, 0, 2, 0.00,60.00,SummerDesignDay
10,711011647.1735549
46,249737579.99999974
70,96701579.99999997
345,153035999.9999997
992,231449399.99999977
1016,231449399.99999977
1496,62992967.48698894
1532,57764642.17263899
1556,57764642.17263899
2227,14800362.219938444
2365,5228325.314349951
4121,239.8186333737043
4133,40.2763886637448
4170,146.49394504991597
4230,0.0
4243,0.0
4354,215024065.13498313
4480,0.0
2,1, 7,21, 0, 3, 0.00,60.00,SummerDesignDay
10,698648466.3686267
46,249737579.99999974
70,96701579.99999997
345,153035999.9999997
992,231449399.99999977
1016,231449399.99999977
1496,62993062.36654769
1532,57764642.17263899
1556,57764642.17263899
2227,14798532.408745997
2365,5228420.1939087
4121,237.69093180997528
4133,40.28383580108436
4170,146.49394504991597
4230,0.0
4243,0.0
4354,202662716.26894898
4480,0.0
2,1, 7,21, 0, 4, 0.00,60.00,SummerDesignDay
10,688042758.12051
46,249737579.99999974
70,96701579.99999997
345,153035999.9999997
992,231449399.99999977
1016,231449399.99999977
1496,63033670.72640297
1532,57764642.17263899
1556,57764642.17263899
2227,14796654.291876646
2365,5269028.553763977
4121,235.9239526671439
4133,40.29007499791618
4170,146.49394504991597
4230,0.0
4243,0.0
4354,192058887.90468074
4480,0.0
2,1, 7,21, 0, 5, 0.00,60.00,SummerDesignDay
10,679837190.7362619
46,249737579.99999974
70,96701579.99999997
345,153035999.9999997
992,231449399.99999977
1016,231449399.99999977
1496,63111000.462172899
1532,57764642.17263899
1556,57764642.17263899
2227,14794725.981873688
2365,5346358.289533902
4121,234.5902093975264
4133,40.295198120615648
4170,146.49394504991597
4230,0.0
4243,0.0
4354,183855250.16417877
4480,0.0
2,1, 7,21, 0, 6, 0.00,60.00,SummerDesignDay
10,708493443.6024312
46,249737579.99999974
70,96701579.99999997
345,153035999.9999997
992,231449399.99999977
1016,231449399.99999977
1496,63111086.653338868
1532,57764642.17263899
1556,57764642.17263899
2227,14906657.957353952
2365,5346444.480699871
4121,245.42664493543655
4133,45.729557570159439
4170,146.49394504991597
4230,0.0
4243,0.0
4354,212399560.21843226
4480,0.0
2,1, 7,21, 0, 7, 0.00,60.00,SummerDesignDay
10,807217109.6697564
46,249737579.99999974
70,96701579.99999997
345,153035999.9999997
992,231449399.99999977
1016,231449399.99999977
1496,63110989.6789475
1532,57764642.17263899
1556,57764642.17263899
2227,15131685.318796982
2365,5346347.506308514
4121,285.24601074261707
4133,74.38517872348575
4170,146.49394504991597
4230,0.0
4243,0.0
4354,310898159.1049487
4480,0.0
2,1, 7,21, 0, 8, 0.00,60.00,SummerDesignDay
10,835912675.7351179
46,249737579.99999974
70,96701579.99999997
345,153035999.9999997
992,231449399.99999977
1016,231449399.99999977
1496,63110805.83351034
1532,57764642.17263899
1556,57764642.17263899
2227,15130532.575951856
2365,5346163.6608713469
4121,282.0727935101737
4133,58.902366611421069
4170,146.49394504991597
4230,0.0
4243,0.0
4354,339594881.0863726
4480,0.0
2,1, 7,21, 0, 9, 0.00,60.00,SummerDesignDay
10,906975003.7489359
46,249737579.99999974
70,96701579.99999997
345,153035999.9999997
992,231449399.99999977
1016,231449399.99999977
1496,62997504.61357665
1532,57764642.17263899
1556,57764642.17263899
2227,15128365.584476002
2365,5232862.440937659
4121,294.52003295019656
4133,57.517114331765508
4170,146.49394504991597
4230,0.0
4243,0.0
4354,410659363.64442709
4480,0.0
2,1, 7,21, 0,10, 0.00,60.00,SummerDesignDay
10,981504513.0960311
46,249737579.99999974
70,96701579.99999997
345,153035999.9999997
992,231449399.99999977
1016,231449399.99999977
1496,62993159.15121367
1532,57764642.17263899
1556,57764642.17263899
2227,15004742.595288197
2365,5228516.97857468
4121,308.39746977843739
4133,59.757802221381329
4170,146.49394504991597
4230,0.0
4243,0.0
4354,485312482.1032732
4480,0.0
2,1, 7,21, 0,11, 0.00,60.00,SummerDesignDay
10,1036577745.632703
46,249737579.99999974
70,96701579.99999997
345,153035999.9999997
992,231449399.99999977
1016,231449399.99999977
1496,62993153.81412321
1532,57764642.17263899
1556,57764642.17263899
2227,14801378.688815656
2365,5228511.641484219
4121,324.1068131650827
4133,67.05450148263867
4170,146.49394504991597
4230,0.0
4243,0.0
4354,540589062.8370742
4480,0.0
2,1, 7,21, 0,12, 0.00,60.00,SummerDesignDay
10,1066619442.6479207
46,249737579.99999974
70,96701579.99999997
345,153035999.9999997
992,231449399.99999977
1016,231449399.99999977
1496,63028875.556986529
1532,57764642.17263899
1556,57764642.17263899
2227,14799631.905846015
2365,5264233.3843475379
4121,334.69257502128178
4133,72.36829856441861
4170,146.49394504991597
4230,0.0
4243,0.0
4354,570632496.0494995
4480,0.0
2,1, 7,21, 0,13, 0.00,60.00,SummerDesignDay
10,1091218571.6175025
46,249737579.99999974
70,96701579.99999997
345,153035999.9999997
992,231449399.99999977
1016,231449399.99999977
1496,63111018.042045298
1532,57764642.17263899
1556,57764642.17263899
2227,14797840.915452559
2365,5346375.869406302
4121,339.4107119955951
4133,72.61986533155224
4170,146.49394504991597
4230,0.0
4243,0.0
4354,595233411.2913379
4480,0.0
2,1, 7,21, 0,14, 0.00,60.00,SummerDesignDay
10,1117597570.7631927
46,249737579.99999974
70,96701579.99999997
345,153035999.9999997
992,231449399.99999977
1016,231449399.99999977
1496,63110700.69233361
1532,57764642.17263899
1556,57764642.17263899
2227,14795944.39038365
2365,5346058.519694619
4121,347.0199385544547
4133,73.33158851344717
4170,146.49394504991597
4230,0.0
4243,0.0
4354,621614299.3528705
4480,0.0
2,1, 7,21, 0,15, 0.00,60.00,SummerDesignDay
10,1135686717.1392725
46,249737579.99999974
70,96701579.99999997
345,153035999.9999997
992,231449399.99999977
1016,231449399.99999977
1496,63110622.022566739
1532,57764642.17263899
1556,57764642.17263899
2227,14793996.946604798
2365,5345979.849927744
4121,354.3936512848193
4133,74.33544759335018
4170,146.49394504991597
4230,0.0
4243,0.0
4354,639705385.7990164
4480,0.0
2,1, 7,21, 0,16, 0.00,60.00,SummerDesignDay
10,1132549387.1599017
46,249737579.99999974
70,96701579.99999997
345,153035999.9999997
992,231449399.99999977
1016,231449399.99999977
1496,63110784.83855081
1532,57764642.17263899
1556,57764642.17263899
2227,15033327.02425548
2365,5346142.665911821
4121,356.2715779586972
4133,74.72227532761245
4170,146.49394504991597
4230,0.0
4243,0.0
4354,636328723.8640684
4480,0.0
2,1, 7,21, 0,17, 0.00,60.00,SummerDesignDay
10,1107943702.033885
46,249737579.99999974
70,96701579.99999997
345,153035999.9999997
992,231449399.99999977
1016,231449399.99999977
1496,63003101.319478157
1532,57764642.17263899
1556,57764642.17263899
2227,15131883.090417199
2365,5238459.146839164
4121,350.5933755344442
4133,74.43433728848582
4170,146.49394504991597
4230,0.0
4243,0.0
4354,611624488.3500923
4480,0.0
2,1, 7,21, 0,18, 0.00,60.00,SummerDesignDay
10,1074101437.6550167
46,249737579.99999974
70,96701579.99999997
345,153035999.9999997
992,231449399.99999977
1016,231449399.99999977
1496,62992966.18354229
1532,57764642.17263899
1556,57764642.17263899
2227,15129782.76376931
2365,5228324.0109033
4121,341.3113056086413
4133,73.25513741964741
4170,146.49394504991597
4230,0.0
4243,0.0
4354,577784333.5799415
4480,0.0
2,1, 7,21, 0,19, 0.00,60.00,SummerDesignDay
10,1015486933.2207148
46,249737579.99999974
70,96701579.99999997
345,153035999.9999997
992,231449399.99999977
1016,231449399.99999977
1496,62993081.112669769
1532,57764642.17263899
1556,57764642.17263899
2227,15127613.053021163
2365,5228438.940030779
4121,322.2596855930339
4133,71.1947761661007
4170,146.49394504991597
4230,0.0
4243,0.0
4354,519172017.9080082
4480,0.0
2,1, 7,21, 0,20, 0.00,60.00,SummerDesignDay
10,951070544.7787136
46,249737579.99999974
70,96701579.99999997
345,153035999.9999997
992,231449399.99999977
1016,231449399.99999977
1496,63023592.068973619
1532,57764642.17263899
1556,57764642.17263899
2227,14878312.032355775
2365,5258949.89633463
4121,298.6631158679431
4133,61.82379890362489
4170,146.49394504991597
4230,0.0
4243,0.0
4354,455004954.08324208
4480,0.0
2,1, 7,21, 0,21, 0.00,60.00,SummerDesignDay
10,900059555.2827768
46,249737579.99999974
70,96701579.99999997
345,153035999.9999997
992,231449399.99999977
1016,231449399.99999977
1496,63111037.93680546
1532,57764642.17263899
1556,57764642.17263899
2227,14800795.316681428
2365,5346395.76416646
4121,279.4760586281985
4133,52.7824748717898
4170,146.49394504991597
4230,0.0
4243,0.0
4354,404071500.4900368
4480,0.0
2,1, 7,21, 0,22, 0.00,60.00,SummerDesignDay
10,830805522.7832168
46,249737579.99999974
70,96701579.99999997
345,153035999.9999997
992,231449399.99999977
1016,231449399.99999977
1496,63110722.56481518
1532,57764642.17263899
1556,57764642.17263899
2227,14798992.70174351
2365,5346080.392176185
4121,261.84473361779467
4133,43.41916879481265
4170,146.49394504991597
4230,0.0
4243,0.0
4354,334819288.23673978
4480,0.0
2,1, 7,21, 0,23, 0.00,60.00,SummerDesignDay
10,795007221.6191006
46,249737579.99999974
70,96701579.99999997
345,153035999.9999997
992,231449399.99999977
1016,231449399.99999977
1496,63110828.87781772
1532,57764642.17263899
1556,57764642.17263899
2227,14797041.641788066
2365,5346186.705178732
4121,255.2893608924083
4133,43.10177419845596
4170,146.49394504991597
4230,0.0
4243,0.0
4354,299022944.6879516
4480,0.0
2,1, 7,21, 0,24, 0.00,60.00,SummerDesignDay
10,764602908.8630301
46,249737579.99999974
70,96701579.99999997
345,153035999.9999997
992,231449399.99999977
1016,231449399.99999977
1496,63110762.32759198
1532,57764642.17263899
1556,57764642.17263899
2227,14795183.929941025
2365,5346120.154952981
4121,249.7390432322175
4133,42.86329036155761
4170,146.49394504991597
4230,0.0
4243,0.0
4354,268620495.19404587
4480,0.0
1,PALM-SPRINGS-INTL ANN HTG 99.6% CONDNS DB,  33.83,-116.50,  -8.00, 137.00
2,1, 1,21, 0, 1, 0.00,60.00,WinterDesignDay
10,72189.86308225211
46,0.0
70,0.0
345,0.0
992,0.0
1016,0.0
1496,217328754.87882097
1532,0.0
1556,0.0
2227,72000.0
2365,579679.3757388103
4121,189.86308225203656
4133,40.18935232519757
4170,146.49394504991597
4230,216749075.50308217
4243,0.0
4354,0.0
4480,0.0
2,1, 1,21, 0, 2, 0.00,60.00,WinterDesignDay
10,72198.04448788097
46,0.0
70,0.0
345,0.0
992,0.0
1016,0.0
1496,269189858.25786367
1532,0.0
1556,0.0
2227,72000.0
2365,833483.8538316
4121,198.04448788090969
4133,40.18935232519757
4170,146.49394504991597
4230,268356374.40403206
4243,0.0
4354,0.0
4480,0.0
2,1, 1,21, 0, 3, 0.00,60.00,WinterDesignDay
10,72206.82834860175
46,0.0
70,0.0
345,0.0
992,0.0
1016,0.0
1496,321940639.1783551
1532,0.0
1556,0.0
2227,72000.0
2365,833372.3095671109
4121,206.82834860168357
4133,40.18935232519757
4170,146.49394504991597
4230,321107266.868788
4243,0.0
4354,0.0
4480,0.0
2,1, 1,21, 0, 4, 0.00,60.00,WinterDesignDay
10,72214.83600778927
46,0.0
70,0.0
345,0.0
992,0.0
1016,0.0
1496,374501727.0897782
1532,0.0
1556,0.0
2227,72000.0
2365,833413.0778855826
4121,214.83600778920889
4133,40.18935232519757
4170,146.49394504991597
4230,373668314.0118926
4243,0.0
4354,0.0
4480,0.0
2,1, 1,21, 0, 5, 0.00,60.00,WinterDesignDay
10,72220.50909229876
46,0.0
70,0.0
345,0.0
992,0.0
1016,0.0
1496,416587887.14332678
1532,0.0
1556,0.0
2227,72000.0
2365,833295.4868468491
4121,220.50909229870053
4133,40.18935232519757
4170,146.49394504991597
4230,415754591.6564799
4243,0.0
4354,0.0
4480,0.0
2,1, 1,21, 0, 6, 0.00,60.00,WinterDesignDay
10,14117188.190598157
46,0.0
70,0.0
345,0.0
992,0.0
1016,0.0
1496,645090749.9208708
1532,0.0
1556,0.0
2227,72000.0
2365,670362.9938057484
4121,249.9612377637095
4133,65.80820598621112
4170,146.49394504991597
4230,644420386.927065
4243,0.0
4354,14044938.229360395
4480,0.0
2,1, 1,21, 0, 7, 0.00,60.00,WinterDesignDay
10,43802264.964915659
46,0.0
70,0.0
345,0.0
992,0.0
1016,0.0
1496,1510349292.3095709
1532,0.0
1556,0.0
2227,72000.0
2365,742811.4804110139
4121,442.7392247050914
4133,139.75642706528996
4170,146.49394504991597
4230,1509606480.8291598
4243,0.0
4354,43729822.22569095
4480,0.0
2,1, 1,21, 0, 8, 0.00,60.00,WinterDesignDay
10,53040907.519435819
46,0.0
70,0.0
345,0.0
992,0.0
1016,0.0
1496,1352805840.8531788
1532,0.0
1556,0.0
2227,72000.0
2365,833457.076972455
4121,414.08219909918639
4133,139.75642706528996
4170,146.49394504991597
4230,1351972383.7762063
4243,0.0
4354,52968493.43723673
4480,0.0
2,1, 1,21, 0, 9, 0.00,60.00,WinterDesignDay
10,35699532.912013579
46,0.0
70,0.0
345,0.0
992,0.0
1016,0.0
1496,1208653949.6979869
1532,0.0
1556,0.0
2227,72000.0
2365,833458.4918711203
4121,358.6897940621293
4133,103.77421719902198
4170,146.49394504991597
4230,1207820491.206116
4243,0.0
4354,35627174.22221951
4480,0.0
2,1, 1,21, 0,10, 0.00,60.00,WinterDesignDay
10,72286.12319273604
46,0.0
70,0.0
345,0.0
992,0.0
1016,0.0
1496,1004175014.55745
1532,0.0
1556,0.0
2227,72000.0
2365,833536.9888016165
4121,286.1231927359746
4133,41.959658226980767
4170,146.49394504991597
4230,1003341477.5686485
4243,0.0
4354,0.0
4480,0.0
2,1, 1,21, 0,11, 0.00,60.00,WinterDesignDay
10,72278.29656129737
46,0.0
70,0.0
345,0.0
992,0.0
1016,0.0
1496,943909862.3482843
1532,0.0
1556,0.0
2227,72000.0
2365,833446.3184504144
4121,278.2965612973036
4133,41.05097293346505
4170,146.49394504991597
4230,943076416.0298339
4243,0.0
4354,0.0
4480,0.0
2,1, 1,21, 0,12, 0.00,60.00,WinterDesignDay
10,72273.62855554758
46,0.0
70,0.0
345,0.0
992,0.0
1016,0.0
1496,906320638.0215368
1532,0.0
1556,0.0
2227,72000.0
2365,579724.847937008
4121,273.628555547503
4133,41.00987289900979
4170,146.49394504991597
4230,905740913.1735997
4243,0.0
4354,0.0
4480,0.0
2,1, 1,21, 0,13, 0.00,60.00,WinterDesignDay
10,72270.42551443659
46,0.0
70,0.0
345,0.0
992,0.0
1016,0.0
1496,881419024.8218744
1532,0.0
1556,0.0
2227,72000.0
2365,833504.258429771
4121,270.4255144365108
4133,41.00987289900979
4170,146.49394504991597
4230,880585520.5634446
4243,0.0
4354,0.0
4480,0.0
2,1, 1,21, 0,14, 0.00,60.00,WinterDesignDay
10,72268.13822554871
46,0.0
70,0.0
345,0.0
992,0.0
1016,0.0
1496,863514987.0414215
1532,0.0
1556,0.0
2227,72000.0
2365,833504.7574094848
4121,268.1382255486579
4133,41.00987289900979
4170,146.49394504991597
4230,862681482.2840121
4243,0.0
4354,0.0
4480,0.0
2,1, 1,21, 0,15, 0.00,60.00,WinterDesignDay
10,72266.48755958842
46,0.0
70,0.0
345,0.0
992,0.0
1016,0.0
1496,850522019.4681945
1532,0.0
1556,0.0
2227,72000.0
2365,833505.5522266836
4121,266.48755958835809
4133,41.00987289900979
4170,146.49394504991597
4230,849688513.9159678
4243,0.0
4354,0.0
4480,0.0
2,1, 1,21, 0,16, 0.00,60.00,WinterDesignDay
10,72265.3004606819
46,0.0
70,0.0
345,0.0
992,0.0
1016,0.0
1496,841191143.0214837
1532,0.0
1556,0.0
2227,72000.0
2365,833506.6423089365
4121,265.30046068182568
4133,41.00987289900979
4170,146.49394504991597
4230,840357636.3791747
4243,0.0
4354,0.0
4480,0.0
2,1, 1,21, 0,17, 0.00,60.00,WinterDesignDay
10,72264.42234165907
46,0.0
70,0.0
345,0.0
992,0.0
1016,0.0
1496,834182874.0877817
1532,0.0
1556,0.0
2227,72000.0
2365,833508.0270848321
4121,264.42234165899597
4133,41.00987289900979
4170,146.49394504991597
4230,833349366.0606967
4243,0.0
4354,0.0
4480,0.0
2,1, 1,21, 0,18, 0.00,60.00,WinterDesignDay
10,72263.77156815373
46,0.0
70,0.0
345,0.0
992,0.0
1016,0.0
1496,828709718.0018206
1532,0.0
1556,0.0
2227,72000.0
2365,579660.2623361489
4121,263.77156815367087
4133,41.00987289900979
4170,146.49394504991597
4230,828130057.7394843
4243,0.0
4354,0.0
4480,0.0
2,1, 1,21, 0,19, 0.00,60.00,WinterDesignDay
10,72263.2885240026
46,0.0
70,0.0
345,0.0
992,0.0
1016,0.0
1496,825022603.7832711
1532,0.0
1556,0.0
2227,72000.0
2365,833511.2573701929
4121,263.28852400253489
4133,41.00987289900979
4170,146.49394504991597
4230,824189092.5259011
4243,0.0
4354,0.0
4480,0.0
2,1, 1,21, 0,20, 0.00,60.00,WinterDesignDay
10,72262.9369190168
46,0.0
70,0.0
345,0.0
992,0.0
1016,0.0
1496,822166862.7794191
1532,0.0
1556,0.0
2227,72000.0
2365,833513.5231032329
4121,262.9369190167556
4133,41.00987289900979
4170,146.49394504991597
4230,821333349.256316
4243,0.0
4354,0.0
4480,0.0
2,1, 1,21, 0,21, 0.00,60.00,WinterDesignDay
10,72262.67898543377
46,0.0
70,0.0
345,0.0
992,0.0
1016,0.0
1496,820034739.5662638
1532,0.0
1556,0.0
2227,72000.0
2365,833516.081254572
4121,262.67898543369736
4133,41.00987289900979
4170,146.49394504991597
4230,819201223.4850093
4243,0.0
4354,0.0
4480,0.0
2,1, 1,21, 0,22, 0.00,60.00,WinterDesignDay
10,846461.6877380835
46,0.0
70,0.0
345,0.0
992,0.0
1016,0.0
1496,629037649.6706041
1532,0.0
1556,0.0
2227,846200.0348286699
2365,833537.3431718435
4121,261.6529094136172
4133,40.18935232519756
4170,146.49394504991597
4230,628204112.3274322
4243,0.0
4354,0.0
4480,0.0
2,1, 1,21, 0,23, 0.00,60.00,WinterDesignDay
10,72186.68329737518
46,0.0
70,0.0
345,0.0
992,0.0
1016,0.0
1496,246929180.3035996
1532,0.0
1556,0.0
2227,72000.0
2365,773164.8669997001
4121,186.68329737511355
4133,40.18935232519757
4170,146.49394504991597
4230,246156015.43659989
4243,0.0
4354,0.0
4480,0.0
2,1, 1,21, 0,24, 0.00,60.00,WinterDesignDay
10,72186.78495104322
46,0.0
70,0.0
345,0.0
992,0.0
1016,0.0
1496,281915372.1801179
1532,0.0
1556,0.0
2227,72000.0
2365,639860.3556095278
4121,186.78495104315048
4133,40.193307804652118
4170,146.49394504991597
4230,281275511.82450839
4243,0.0
4354,0.0
4480,0.0
1,PALM-SPRINGS-INTL AUG CLG 0.4% CONDNS DB=>MCWB,  33.83,-116.50,  -8.00, 137.00
2,1, 8,21, 0, 1, 0.00,60.00,SummerDesignDay
10,878790598.4048947
46,249737579.99999974
70,96701579.99999997
345,153035999.9999997
992,231449399.99999977
1016,231449399.99999977
1496,62842946.16666485
1532,57764642.17263899
1556,57764642.17263899
2227,14487549.031550434
2365,5078303.994025871
4121,274.37038518370198
4133,40.31680648477321
4170,146.49394504991597
4230,0.0
4243,0.0
4354,383115795.002959
4480,0.0
2,1, 8,21, 0, 2, 0.00,60.00,SummerDesignDay
10,868393599.7359154
46,249737579.99999974
70,96701579.99999997
345,153035999.9999997
992,231449399.99999977
1016,231449399.99999977
1496,62842820.41527789
1532,57764642.17263899
1556,57764642.17263899
2227,14489034.29451021
2365,5078178.242638897
4121,272.8590640712083
4133,40.33713218763921
4170,146.49394504991597
4230,0.0
4243,0.0
4354,372717312.5823411
4480,0.0
2,1, 8,21, 0, 3, 0.00,60.00,SummerDesignDay
10,862053133.3813524
46,249737579.99999974
70,96701579.99999997
345,153035999.9999997
992,231449399.99999977
1016,231449399.99999977
1496,62871887.748038988
1532,57764642.17263899
1556,57764642.17263899