Program Version,EnergyPlus, Version 9.0.1-bb7ca4f0da, YMD=2019.12.18 16:44
1,5,Environment Title[],Latitude[deg],Longitude[deg],Time Zone[],Elevation[m]
2,8,Day of Simulation[],Month[],Day of Month[],DST Indicator[1=yes 0=no],Hour[],StartMinute[],EndMinute[],DayType
3,5,Cumulative Day of Simulation[],Month[],Day of Month[],DST Indicator[1=yes 0=no],DayType  ! When Daily Report Variables Requested
4,2,Cumulative Days of Simulation[],Month[]  ! When Monthly Report Variables Requested
5,1,Cumulative Days of Simulation[] ! When Run Period Report Variables Requested
6,1,Calendar Year of Simulation[] ! When Annual Report Variables Requested
7,1,Environment,Site Outdoor Air Drybulb Temperature [C] !TimeStep
4438,1,BASE BLR,Boiler Heating Rate [W] !Hourly
End of Data Dictionary
1,PALM-SPRINGS-INTL ANN CLG 0.4% CONDNS DB=>MCWB,  33.83,-116.50,  -8.00, 137.00
2,1, 7,21, 0, 1, 0.00,15.00,SummerDesignDay
7,32.560500000000008
2,1, 7,21, 0, 1,15.00,30.00,SummerDesignDay
7,32.355000000000007
2,1, 7,21, 0, 1,30.00,45.00,SummerDesignDay
7,32.1495
2,1, 7,21, 0, 1,45.00,60.00,SummerDesignDay
7,31.944000000000004
2,1, 7,21, 0, 1, 0.00,60.00,SummerDesignDay
4438,0.0
2,1, 7,21, 0, 2, 0.00,15.00,SummerDesignDay
7,31.807000000000003
2,1, 7,21, 0, 2,15.00,30.00,SummerDesignDay
7,31.67
2,1, 7,21, 0, 2,30.00,45.00,SummerDesignDay
7,31.533
2,1, 7,21, 0, 2,45.00,60.00,SummerDesignDay
7,31.396
2,1, 7,21, 0, 2, 0.00,60.00,SummerDesignDay
4438,0.0
2,1, 7,21, 0, 3, 0.00,15.00,SummerDesignDay
7,31.29325
2,1, 7,21, 0, 3,15.00,30.00,SummerDesignDay
7,31.1905
2,1, 7,21, 0, 3,30.00,45.00,SummerDesignDay
7,31.08775
2,1, 7,21, 0, 3,45.00,60.00,SummerDesignDay
7,30.985
2,1, 7,21, 0, 3, 0.00,60.00,SummerDesignDay
4438,0.0
2,1, 7,21, 0, 4, 0.00,15.00,SummerDesignDay
7,30.882250000000004
2,1, 7,21, 0, 4,15.00,30.00,SummerDesignDay
7,30.7795
2,1, 7,21, 0, 4,30.00,45.00,SummerDesignDay
7,30.676750000000003
2,1, 7,21, 0, 4,45.00,60.00,SummerDesignDay
7,30.574
2,1, 7,21, 0, 4, 0.00,60.00,SummerDesignDay
4438,0.0
2,1, 7,21, 0, 5, 0.00,15.00,SummerDesignDay
7,30.5055
2,1, 7,21, 0, 5,15.00,30.00,SummerDesignDay
7,30.437
2,1, 7,21, 0, 5,30.00,45.00,SummerDesignDay
7,30.3685
2,1, 7,21, 0, 5,45.00,60.00,SummerDesignDay
7,30.3
2,1, 7,21, 0, 5, 0.00,60.00,SummerDesignDay
4438,0.0
2,1, 7,21, 0, 6, 0.00,15.00,SummerDesignDay
7,30.3685
2,1, 7,21, 0, 6,15.00,30.00,SummerDesignDay
7,30.437
2,1, 7,21, 0, 6,30.00,45.00,SummerDesignDay
7,30.5055
2,1, 7,21, 0, 6,45.00,60.00,SummerDesignDay
7,30.574
2,1, 7,21, 0, 6, 0.00,60.00,SummerDesignDay
4438,0.0
2,1, 7,21, 0, 7, 0.00,15.00,SummerDesignDay
7,30.81375
2,1, 7,21, 0, 7,15.00,30.00,SummerDesignDay
7,31.0535
2,1, 7,21, 0, 7,30.00,45.00,SummerDesignDay
7,31.29325
2,1, 7,21, 0, 7,45.00,60.00,SummerDesignDay
7,31.533
2,1, 7,21, 0, 7, 0.00,60.00,SummerDesignDay
4438,0.0
2,1, 7,21, 0, 8, 0.00,15.00,SummerDesignDay
7,32.11525
2,1, 7,21, 0, 8,15.00,30.00,SummerDesignDay
7,32.697500000000008
2,1, 7,21, 0, 8,30.00,45.00,SummerDesignDay
7,33.27975
2,1, 7,21, 0, 8,45.00,60.00,SummerDesignDay
7,33.862
2,1, 7,21, 0, 8, 0.00,60.00,SummerDesignDay
4438,0.0
2,1, 7,21, 0, 9, 0.00,15.00,SummerDesignDay
7,34.512750000000007
2,1, 7,21, 0, 9,15.00,30.00,SummerDesignDay
7,35.1635
2,1, 7,21, 0, 9,30.00,45.00,SummerDesignDay
7,35.81425
2,1, 7,21, 0, 9,45.00,60.00,SummerDesignDay
7,36.465
2,1, 7,21, 0, 9, 0.00,60.00,SummerDesignDay
4438,0.0
2,1, 7,21, 0,10, 0.00,15.00,SummerDesignDay
7,37.04725
2,1, 7,21, 0,10,15.00,30.00,SummerDesignDay
7,37.6295
2,1, 7,21, 0,10,30.00,45.00,SummerDesignDay
7,38.21175
2,1, 7,21, 0,10,45.00,60.00,SummerDesignDay
7,38.794
2,1, 7,21, 0,10, 0.00,60.00,SummerDesignDay
4438,0.0
2,1, 7,21, 0,11, 0.00,15.00,SummerDesignDay
7,39.30775
2,1, 7,21, 0,11,15.00,30.00,SummerDesignDay
7,39.8215
2,1, 7,21, 0,11,30.00,45.00,SummerDesignDay
7,40.33525
2,1, 7,21, 0,11,45.00,60.00,SummerDesignDay
7,40.849000000000007
2,1, 7,21, 0,11, 0.00,60.00,SummerDesignDay
4438,0.0
2,1, 7,21, 0,12, 0.00,15.00,SummerDesignDay
7,41.1915
2,1, 7,21, 0,12,15.00,30.00,SummerDesignDay
7,41.534
2,1, 7,21, 0,12,30.00,45.00,SummerDesignDay
7,41.8765
2,1, 7,21, 0,12,45.00,60.00,SummerDesignDay
7,42.219
2,1, 7,21, 0,12, 0.00,60.00,SummerDesignDay
4438,0.0
2,1, 7,21, 0,13, 0.00,15.00,SummerDesignDay
7,42.493
2,1, 7,21, 0,13,15.00,30.00,SummerDesignDay
7,42.767
2,1, 7,21, 0,13,30.00,45.00,SummerDesignDay
7,43.041
2,1, 7,21, 0,13,45.00,60.00,SummerDesignDay
7,43.315
2,1, 7,21, 0,13, 0.00,60.00,SummerDesignDay
4438,0.0
2,1, 7,21, 0,14, 0.00,15.00,SummerDesignDay
7,43.48625
2,1, 7,21, 0,14,15.00,30.00,SummerDesignDay
7,43.6575
2,1, 7,21, 0,14,30.00,45.00,SummerDesignDay
7,43.82875
2,1, 7,21, 0,14,45.00,60.00,SummerDesignDay
7,44.0
2,1, 7,21, 0,14, 0.00,60.00,SummerDesignDay
4438,0.0
2,1, 7,21, 0,15, 0.00,15.00,SummerDesignDay
7,44.0
2,1, 7,21, 0,15,15.00,30.00,SummerDesignDay
7,44.0
2,1, 7,21, 0,15,30.00,45.00,SummerDesignDay
7,44.0
2,1, 7,21, 0,15,45.00,60.00,SummerDesignDay
7,44.0
2,1, 7,21, 0,15, 0.00,60.00,SummerDesignDay
4438,0.0
2,1, 7,21, 0,16, 0.00,15.00,SummerDesignDay
7,43.7945
2,1, 7,21, 0,16,15.00,30.00,SummerDesignDay
7,43.589
2,1, 7,21, 0,16,30.00,45.00,SummerDesignDay
7,43.3835
2,1, 7,21, 0,16,45.00,60.00,SummerDesignDay
7,43.178
2,1, 7,21, 0,16, 0.00,60.00,SummerDesignDay
4438,0.0
2,1, 7,21, 0,17, 0.00,15.00,SummerDesignDay
7,42.904
2,1, 7,21, 0,17,15.00,30.00,SummerDesignDay
7,42.63
2,1, 7,21, 0,17,30.00,45.00,SummerDesignDay
7,42.356
2,1, 7,21, 0,17,45.00,60.00,SummerDesignDay
7,42.082
2,1, 7,21, 0,17, 0.00,60.00,SummerDesignDay
4438,0.0
2,1, 7,21, 0,18, 0.00,15.00,SummerDesignDay
7,41.7395
2,1, 7,21, 0,18,15.00,30.00,SummerDesignDay
7,41.397
2,1, 7,21, 0,18,30.00,45.00,SummerDesignDay
7,41.0545
2,1, 7,21, 0,18,45.00,60.00,SummerDesignDay
7,40.712
2,1, 7,21, 0,18, 0.00,60.00,SummerDesignDay
4438,0.0
2,1, 7,21, 0,19, 0.00,15.00,SummerDesignDay
7,40.19825
2,1, 7,21, 0,19,15.00,30.00,SummerDesignDay
7,39.6845
2,1, 7,21, 0,19,30.00,45.00,SummerDesignDay
7,39.17075
2,1, 7,21, 0,19,45.00,60.00,SummerDesignDay
7,38.657
2,1, 7,21, 0,19, 0.00,60.00,SummerDesignDay
4438,0.0
2,1, 7,21, 0,20, 0.00,15.00,SummerDesignDay
7,38.28025
2,1, 7,21, 0,20,15.00,30.00,SummerDesignDay
7,37.9035
2,1, 7,21, 0,20,30.00,45.00,SummerDesignDay
7,37.52675
2,1, 7,21, 0,20,45.00,60.00,SummerDesignDay
7,37.15
2,1, 7,21, 0,20, 0.00,60.00,SummerDesignDay
4438,0.0
2,1, 7,21, 0,21, 0.00,15.00,SummerDesignDay
7,36.841750000000008
2,1, 7,21, 0,21,15.00,30.00,SummerDesignDay
7,36.533500000000007
2,1, 7,21, 0,21,30.00,45.00,SummerDesignDay
7,36.22525
2,1, 7,21, 0,21,45.00,60.00,SummerDesignDay
7,35.917
2,1, 7,21, 0,21, 0.00,60.00,SummerDesignDay
4438,0.0
2,1, 7,21, 0,22, 0.00,15.00,SummerDesignDay
7,35.60875
2,1, 7,21, 0,22,15.00,30.00,SummerDesignDay
7,35.3005
2,1, 7,21, 0,22,30.00,45.00,SummerDesignDay
7,34.99225
2,1, 7,21, 0,22,45.00,60.00,SummerDesignDay
7,34.684
2,1, 7,21, 0,22, 0.00,60.00,SummerDesignDay
4438,0.0
2,1, 7,21, 0,23, 0.00,15.00,SummerDesignDay
7,34.44425
2,1, 7,21, 0,23,15.00,30.00,SummerDesignDay
7,34.204499999999999
2,1, 7,21, 0,23,30.00,45.00,SummerDesignDay
7,33.96475
2,1, 7,21, 0,23,45.00,60.00,SummerDesignDay
7,33.725
2,1, 7,21, 0,23, 0.00,60.00,SummerDesignDay
4438,0.0
2,1, 7,21, 0,24, 0.00,15.00,SummerDesignDay
7,33.48525
2,1, 7,21, 0,24,15.00,30.00,SummerDesignDay
7,33.2455
2,1, 7,21, 0,24,30.00,45.00,SummerDesignDay
7,33.00575
2,1, 7,21, 0,24,45.00,60.00,SummerDesignDay
7,32.766000000000008
2,1, 7,21, 0,24, 0.00,60.00,SummerDesignDay
4438,0.0
1,PALM-SPRINGS-INTL ANN CLG 0.4% CONDNS DP=>MCDB,  33.83,-116.50,  -8.00, 137.00
2,1, 7,21, 0, 1, 0.00,15.00,SummerDesignDay
7,21.4605
2,1, 7,21, 0, 1,15.00,30.00,SummerDesignDay
7,21.255
2,1, 7,21, 0, 1,30.00,45.00,SummerDesignDay
7,21.049500000000003
2,1, 7,21, 0, 1,45.00,60.00,SummerDesignDay
7,20.844
2,1, 7,21, 0, 1, 0.00,60.00,SummerDesignDay
4438,0.0
2,1, 7,21, 0, 2, 0.00,15.00,SummerDesignDay
7,20.707
2,1, 7,21, 0, 2,15.00,30.00,SummerDesignDay
7,20.57
2,1, 7,21, 0, 2,30.00,45.00,SummerDesignDay
7,20.433
2,1, 7,21, 0, 2,45.00,60.00,SummerDesignDay
7,20.296
2,1, 7,21, 0, 2, 0.00,60.00,SummerDesignDay
4438,0.0
2,1, 7,21, 0, 3, 0.00,15.00,SummerDesignDay
7,20.19325
2,1, 7,21, 0, 3,15.00,30.00,SummerDesignDay
7,20.0905
2,1, 7,21, 0, 3,30.00,45.00,SummerDesignDay
7,19.98775
2,1, 7,21, 0, 3,45.00,60.00,SummerDesignDay
7,19.884999999999999
2,1, 7,21, 0, 3, 0.00,60.00,SummerDesignDay
4438,0.0
2,1, 7,21, 0, 4, 0.00,15.00,SummerDesignDay
7,19.78225
2,1, 7,21, 0, 4,15.00,30.00,SummerDesignDay
7,19.679499999999999
2,1, 7,21, 0, 4,30.00,45.00,SummerDesignDay
7,19.57675
2,1, 7,21, 0, 4,45.00,60.00,SummerDesignDay
7,19.474
2,1, 7,21, 0, 4, 0.00,60.00,SummerDesignDay
4438,0.0
2,1, 7,21, 0, 5, 0.00,15.00,SummerDesignDay
7,19.4055
2,1, 7,21, 0, 5,15.00,30.00,SummerDesignDay
7,19.337
2,1, 7,21, 0, 5,30.00,45.00,SummerDesignDay
7,19.2685
2,1, 7,21, 0, 5,45.00,60.00,SummerDesignDay
7,19.2
2,1, 7,21, 0, 5, 0.00,60.00,SummerDesignDay
4438,0.0
2,1, 7,21, 0, 6, 0.00,15.00,SummerDesignDay
7,19.2685
2,1, 7,21, 0, 6,15.00,30.00,SummerDesignDay
7,19.337
2,1, 7,21, 0, 6,30.00,45.00,SummerDesignDay
7,19.4055
2,1, 7,21, 0, 6,45.00,60.00,SummerDesignDay
7,19.474
2,1, 7,21, 0, 6, 0.00,60.00,SummerDesignDay
4438,0.0
2,1, 7,21, 0, 7, 0.00,15.00,SummerDesignDay
7,19.713749999999999
2,1, 7,21, 0, 7,15.00,30.00,SummerDesignDay
7,19.9535
2,1, 7,21, 0, 7,30.00,45.00,SummerDesignDay
7,20.19325
2,1, 7,21, 0, 7,45.00,60.00,SummerDesignDay
7,20.433
2,1, 7,21, 0, 7, 0.00,60.00,SummerDesignDay
4438,0.0
2,1, 7,21, 0, 8, 0.00,15.00,SummerDesignDay
7,21.01525
2,1, 7,21, 0, 8,15.00,30.00,SummerDesignDay
7,21.5975
2,1, 7,21, 0, 8,30.00,45.00,SummerDesignDay
7,22.17975
2,1, 7,21, 0, 8,45.00,60.00,SummerDesignDay
7,22.762
2,1, 7,21, 0, 8, 0.00,60.00,SummerDesignDay
4438,0.0
2,1, 7,21, 0, 9, 0.00,15.00,SummerDesignDay
7,23.412750000000004
2,1, 7,21, 0, 9,15.00,30.00,SummerDesignDay
7,24.063499999999999
2,1, 7,21, 0, 9,30.00,45.00,SummerDesignDay
7,24.71425
2,1, 7,21, 0, 9,45.00,60.00,SummerDesignDay
7,25.365
2,1, 7,21, 0, 9, 0.00,60.00,SummerDesignDay
4438,0.0
2,1, 7,21, 0,10, 0.00,15.00,SummerDesignDay
7,25.947249999999998
2,1, 7,21, 0,10,15.00,30.00,SummerDesignDay
7,26.5295
2,1, 7,21, 0,10,30.00,45.00,SummerDesignDay
7,27.111749999999998
2,1, 7,21, 0,10,45.00,60.00,SummerDesignDay
7,27.694
2,1, 7,21, 0,10, 0.00,60.00,SummerDesignDay
4438,0.0
2,1, 7,21, 0,11, 0.00,15.00,SummerDesignDay
7,28.207749999999998
2,1, 7,21, 0,11,15.00,30.00,SummerDesignDay
7,28.7215
2,1, 7,21, 0,11,30.00,45.00,SummerDesignDay
7,29.235249999999998
2,1, 7,21, 0,11,45.00,60.00,SummerDesignDay
7,29.749
2,1, 7,21, 0,11, 0.00,60.00,SummerDesignDay
4438,0.0
2,1, 7,21, 0,12, 0.00,15.00,SummerDesignDay
7,30.0915
2,1, 7,21, 0,12,15.00,30.00,SummerDesignDay
7,30.433999999999999
2,1, 7,21, 0,12,30.00,45.00,SummerDesignDay
7,30.7765
2,1, 7,21, 0,12,45.00,60.00,SummerDesignDay
7,31.119
2,1, 7,21, 0,12, 0.00,60.00,SummerDesignDay
4438,0.0
2,1, 7,21, 0,13, 0.00,15.00,SummerDesignDay
7,31.392999999999998
2,1, 7,21, 0,13,15.00,30.00,SummerDesignDay
7,31.666999999999999
2,1, 7,21, 0,13,30.00,45.00,SummerDesignDay
7,31.941
2,1, 7,21, 0,13,45.00,60.00,SummerDesignDay
7,32.214999999999999
2,1, 7,21, 0,13, 0.00,60.00,SummerDesignDay
4438,0.0
2,1, 7,21, 0,14, 0.00,15.00,SummerDesignDay
7,32.38625
2,1, 7,21, 0,14,15.00,30.00,SummerDesignDay
7,32.5575
2,1, 7,21, 0,14,30.00,45.00,SummerDesignDay
7,32.72875
2,1, 7,21, 0,14,45.00,60.00,SummerDesignDay
7,32.9
2,1, 7,21, 0,14, 0.00,60.00,SummerDesignDay
4438,0.0
2,1, 7,21, 0,15, 0.00,15.00,SummerDesignDay
7,32.9
2,1, 7,21, 0,15,15.00,30.00,SummerDesignDay
7,32.9
2,1, 7,21, 0,15,30.00,45.00,SummerDesignDay
7,32.9
2,1, 7,21, 0,15,45.00,60.00,SummerDesignDay
7,32.9
2,1, 7,21, 0,15, 0.00,60.00,SummerDesignDay
4438,0.0
2,1, 7,21, 0,16, 0.00,15.00,SummerDesignDay
7,32.6945
2,1, 7,21, 0,16,15.00,30.00,SummerDesignDay
7,32.489
2,1, 7,21, 0,16,30.00,45.00,SummerDesignDay
7,32.2835
2,1, 7,21, 0,16,45.00,60.00,SummerDesignDay
7,32.077999999999999
2,1, 7,21, 0,16, 0.00,60.00,SummerDesignDay
4438,0.0
2,1, 7,21, 0,17, 0.00,15.00,SummerDesignDay
7,31.804
2,1, 7,21, 0,17,15.00,30.00,SummerDesignDay
7,31.529999999999999
2,1, 7,21, 0,17,30.00,45.00,SummerDesignDay
7,31.256
2,1, 7,21, 0,17,45.00,60.00,SummerDesignDay
7,30.982
2,1, 7,21, 0,17, 0.00,60.00,SummerDesignDay
4438,0.0
2,1, 7,21, 0,18, 0.00,15.00,SummerDesignDay
7,30.639499999999999
2,1, 7,21, 0,18,15.00,30.00,SummerDesignDay
7,30.296999999999998
2,1, 7,21, 0,18,30.00,45.00,SummerDesignDay
7,29.9545
2,1, 7,21, 0,18,45.00,60.00,SummerDesignDay
7,29.612
2,1, 7,21, 0,18, 0.00,60.00,SummerDesignDay
4438,0.0
2,1, 7,21, 0,19, 0.00,15.00,SummerDesignDay
7,29.09825
2,1, 7,21, 0,19,15.00,30.00,SummerDesignDay
7,28.5845
2,1, 7,21, 0,19,30.00,45.00,SummerDesignDay
7,28.07075
2,1, 7,21, 0,19,45.00,60.00,SummerDesignDay
7,27.557
2,1, 7,21, 0,19, 0.00,60.00,SummerDesignDay
4438,0.0
2,1, 7,21, 0,20, 0.00,15.00,SummerDesignDay
7,27.18025
2,1, 7,21, 0,20,15.00,30.00,SummerDesignDay
7,26.8035
2,1, 7,21, 0,20,30.00,45.00,SummerDesignDay
7,26.42675
2,1, 7,21, 0,20,45.00,60.00,SummerDesignDay
7,26.049999999999998
2,1, 7,21, 0,20, 0.00,60.00,SummerDesignDay
4438,0.0
2,1, 7,21, 0,21, 0.00,15.00,SummerDesignDay
7,25.74175
2,1, 7,21, 0,21,15.00,30.00,SummerDesignDay
7,25.4335
2,1, 7,21, 0,21,30.00,45.00,SummerDesignDay
7,25.125249999999999
2,1, 7,21, 0,21,45.00,60.00,SummerDesignDay
7,24.817
2,1, 7,21, 0,21, 0.00,60.00,SummerDesignDay
4438,0.0
2,1, 7,21, 0,22, 0.00,15.00,SummerDesignDay
7,24.50875
2,1, 7,21, 0,22,15.00,30.00,SummerDesignDay
7,24.200499999999999
2,1, 7,21, 0,22,30.00,45.00,SummerDesignDay
7,23.892249999999998
2,1, 7,21, 0,22,45.00,60.00,SummerDesignDay
7,23.583999999999997
2,1, 7,21, 0,22, 0.00,60.00,SummerDesignDay
4438,0.0
2,1, 7,21, 0,23, 0.00,15.00,SummerDesignDay
7,23.34425
2,1, 7,21, 0,23,15.00,30.00,SummerDesignDay
7,23.104499999999999
2,1, 7,21, 0,23,30.00,45.00,SummerDesignDay
7,22.86475
2,1, 7,21, 0,23,45.00,60.00,SummerDesignDay
7,22.625
2,1, 7,21, 0,23, 0.00,60.00,SummerDesignDay
4438,0.0
2,1, 7,21, 0,24, 0.00,15.00,SummerDesignDay
7,22.38525
2,1, 7,21, 0,24,15.00,30.00,SummerDesignDay
7,22.1455
2,1, 7,21, 0,24,30.00,45.00,SummerDesignDay
7,21.905749999999999
2,1, 7,21, 0,24,45.00,60.00,SummerDesignDay
7,21.666
2,1, 7,21, 0,24, 0.00,60.00,SummerDesignDay
4438,0.0
1,PALM-SPRINGS-INTL ANN HTG 99.6% CONDNS DB,  33.83,-116.50,  -8.00, 137.00
2,1, 1,21, 0, 1, 0.00,15.00,WinterDesignDay
7,5.9
2,1, 1,21, 0, 1,15.00,30.00,WinterDesignDay
7,5.9
2,1, 1,21, 0, 1,30.00,45.00,WinterDesignDay
7,5.9
2,1, 1,21, 0, 1,45.00,60.00,WinterDesignDay
7,5.9
2,1, 1,21, 0, 1, 0.00,60.00,WinterDesignDay
4438,34176.2557918938
2,1, 1,21, 0, 2, 0.00,15.00,WinterDesignDay
7,5.9
2,1, 1,21, 0, 2,15.00,30.00,WinterDesignDay
7,5.9
2,1, 1,21, 0, 2,30.00,45.00,WinterDesignDay
7,5.9
2,1, 1,21, 0, 2,45.00,60.00,WinterDesignDay
7,5.9
2,1, 1,21, 0, 2, 0.00,60.00,WinterDesignDay
4438,36064.48503206219
2,1, 1,21, 0, 3, 0.00,15.00,WinterDesignDay
7,5.9
2,1, 1,21, 0, 3,15.00,30.00,WinterDesignDay
7,5.9
2,1, 1,21, 0, 3,30.00,45.00,WinterDesignDay
7,5.9
2,1, 1,21, 0, 3,45.00,60.00,WinterDesignDay
7,5.9
2,1, 1,21, 0, 3, 0.00,60.00,WinterDesignDay
4438,37442.60887428161
2,1, 1,21, 0, 4, 0.00,15.00,WinterDesignDay
7,5.9
2,1, 1,21, 0, 4,15.00,30.00,WinterDesignDay
7,5.9
2,1, 1,21, 0, 4,30.00,45.00,WinterDesignDay
7,5.9
2,1, 1,21, 0, 4,45.00,60.00,WinterDesignDay
7,5.9
2,1, 1,21, 0, 4, 0.00,60.00,WinterDesignDay
4438,39322.08785985714
2,1, 1,21, 0, 5, 0.00,15.00,WinterDesignDay
7,5.9
2,1, 1,21, 0, 5,15.00,30.00,WinterDesignDay
7,5.9
2,1, 1,21, 0, 5,30.00,45.00,WinterDesignDay
7,5.9
2,1, 1,21, 0, 5,45.00,60.00,WinterDesignDay
7,5.9
2,1, 1,21, 0, 5, 0.00,60.00,WinterDesignDay
4438,41675.36830432006
2,1, 1,21, 0, 6, 0.00,15.00,WinterDesignDay
7,5.9
2,1, 1,21, 0, 6,15.00,30.00,WinterDesignDay
7,5.9
2,1, 1,21, 0, 6,30.00,45.00,WinterDesignDay
7,5.9
2,1, 1,21, 0, 6,45.00,60.00,WinterDesignDay
7,5.9
2,1, 1,21, 0, 6, 0.00,60.00,WinterDesignDay
4438,91600.99652403334
2,1, 1,21, 0, 7, 0.00,15.00,WinterDesignDay
7,5.9
2,1, 1,21, 0, 7,15.00,30.00,WinterDesignDay
7,5.9
2,1, 1,21, 0, 7,30.00,45.00,WinterDesignDay
7,5.9
2,1, 1,21, 0, 7,45.00,60.00,WinterDesignDay
7,5.9
2,1, 1,21, 0, 7, 0.00,60.00,WinterDesignDay
4438,145701.675104913
2,1, 1,21, 0, 8, 0.00,15.00,WinterDesignDay
7,5.9
2,1, 1,21, 0, 8,15.00,30.00,WinterDesignDay
7,5.9
2,1, 1,21, 0, 8,30.00,45.00,WinterDesignDay
7,5.9
2,1, 1,21, 0, 8,45.00,60.00,WinterDesignDay
7,5.9
2,1, 1,21, 0, 8, 0.00,60.00,WinterDesignDay
4438,145701.675104913
2,1, 1,21, 0, 9, 0.00,15.00,WinterDesignDay
7,5.9
2,1, 1,21, 0, 9,15.00,30.00,WinterDesignDay
7,5.9
2,1, 1,21, 0, 9,30.00,45.00,WinterDesignDay
7,5.9
2,1, 1,21, 0, 9,45.00,60.00,WinterDesignDay
7,5.9
2,1, 1,21, 0, 9, 0.00,60.00,WinterDesignDay
4438,136272.59685166949
2,1, 1,21, 0,10, 0.00,15.00,WinterDesignDay
7,5.9
2,1, 1,21, 0,10,15.00,30.00,WinterDesignDay
7,5.9
2,1, 1,21, 0,10,30.00,45.00,WinterDesignDay
7,5.9
2,1, 1,21, 0,10,45.00,60.00,WinterDesignDay
7,5.9
2,1, 1,21, 0,10, 0.00,60.00,WinterDesignDay
4438,99937.96134058424
2,1, 1,21, 0,11, 0.00,15.00,WinterDesignDay
7,5.9
2,1, 1,21, 0,11,15.00,30.00,WinterDesignDay
7,5.9
2,1, 1,21, 0,11,30.00,45.00,WinterDesignDay
7,5.9
2,1, 1,21, 0,11,45.00,60.00,WinterDesignDay
7,5.9
2,1, 1,21, 0,11, 0.00,60.00,WinterDesignDay
4438,94161.9689609704
2,1, 1,21, 0,12, 0.00,15.00,WinterDesignDay
7,5.9
2,1, 1,21, 0,12,15.00,30.00,WinterDesignDay
7,5.9
2,1, 1,21, 0,12,30.00,45.00,WinterDesignDay
7,5.9
2,1, 1,21, 0,12,45.00,60.00,WinterDesignDay
7,5.9
2,1, 1,21, 0,12, 0.00,60.00,WinterDesignDay
4438,91053.9071413264
2,1, 1,21, 0,13, 0.00,15.00,WinterDesignDay
7,5.9
2,1, 1,21, 0,13,15.00,30.00,WinterDesignDay
7,5.9
2,1, 1,21, 0,13,30.00,45.00,WinterDesignDay
7,5.9
2,1, 1,21, 0,13,45.00,60.00,WinterDesignDay
7,5.9
2,1, 1,21, 0,13, 0.00,60.00,WinterDesignDay
4438,89076.61875951458
2,1, 1,21, 0,14, 0.00,15.00,WinterDesignDay
7,5.9
2,1, 1,21, 0,14,15.00,30.00,WinterDesignDay
7,5.9
2,1, 1,21, 0,14,30.00,45.00,WinterDesignDay
7,5.9
2,1, 1,21, 0,14,45.00,60.00,WinterDesignDay
7,5.9
2,1, 1,21, 0,14, 0.00,60.00,WinterDesignDay
4438,87678.96173913816
2,1, 1,21, 0,15, 0.00,15.00,WinterDesignDay
7,5.9
2,1, 1,21, 0,15,15.00,30.00,WinterDesignDay
7,5.9
2,1, 1,21, 0,15,30.00,45.00,WinterDesignDay
7,5.9
2,1, 1,21, 0,15,45.00,60.00,WinterDesignDay
7,5.9
2,1, 1,21, 0,15, 0.00,60.00,WinterDesignDay
4438,86651.18307235584
2,1, 1,21, 0,16, 0.00,15.00,WinterDesignDay
7,5.9
2,1, 1,21, 0,16,15.00,30.00,WinterDesignDay
7,5.9
2,1, 1,21, 0,16,30.00,45.00,WinterDesignDay
7,5.9
2,1, 1,21, 0,16,45.00,60.00,WinterDesignDay
7,5.9
2,1, 1,21, 0,16, 0.00,60.00,WinterDesignDay
4438,85914.68601120933
2,1, 1,21, 0,17, 0.00,15.00,WinterDesignDay
7,5.9
2,1, 1,21, 0,17,15.00,30.00,WinterDesignDay
7,5.9
2,1, 1,21, 0,17,30.00,45.00,WinterDesignDay
7,5.9
2,1, 1,21, 0,17,45.00,60.00,WinterDesignDay
7,5.9
2,1, 1,21, 0,17, 0.00,60.00,WinterDesignDay
4438,85342.85147970585
2,1, 1,21, 0,18, 0.00,15.00,WinterDesignDay
7,5.9
2,1, 1,21, 0,18,15.00,30.00,WinterDesignDay
7,5.9
2,1, 1,21, 0,18,30.00,45.00,WinterDesignDay
7,5.9
2,1, 1,21, 0,18,45.00,60.00,WinterDesignDay
7,5.9
2,1, 1,21, 0,18, 0.00,60.00,WinterDesignDay
4438,84912.43233688864
2,1, 1,21, 0,19, 0.00,15.00,WinterDesignDay
7,5.9
2,1, 1,21, 0,19,15.00,30.00,WinterDesignDay
7,5.9
2,1, 1,21, 0,19,30.00,45.00,WinterDesignDay
7,5.9
2,1, 1,21, 0,19,45.00,60.00,WinterDesignDay
7,5.9
2,1, 1,21, 0,19, 0.00,60.00,WinterDesignDay
4438,84575.8299185273
2,1, 1,21, 0,20, 0.00,15.00,WinterDesignDay
7,5.9
2,1, 1,21, 0,20,15.00,30.00,WinterDesignDay
7,5.9
2,1, 1,21, 0,20,30.00,45.00,WinterDesignDay
7,5.9
2,1, 1,21, 0,20,45.00,60.00,WinterDesignDay
7,5.9
2,1, 1,21, 0,20, 0.00,60.00,WinterDesignDay
4438,84333.94171457752
2,1, 1,21, 0,21, 0.00,15.00,WinterDesignDay
7,5.9
2,1, 1,21, 0,21,15.00,30.00,WinterDesignDay
7,5.9
2,1, 1,21, 0,21,30.00,45.00,WinterDesignDay
7,5.9
2,1, 1,21, 0,21,45.00,60.00,WinterDesignDay
7,5.9
2,1, 1,21, 0,21, 0.00,60.00,WinterDesignDay
4438,84147.03849546603
2,1, 1,21, 0,22, 0.00,15.00,WinterDesignDay
7,5.9
2,1, 1,21, 0,22,15.00,30.00,WinterDesignDay
7,5.9
2,1, 1,21, 0,22,30.00,45.00,WinterDesignDay
7,5.9
2,1, 1,21, 0,22,45.00,60.00,WinterDesignDay
7,5.9
2,1, 1,21, 0,22, 0.00,60.00,WinterDesignDay
4438,39248.08594142109
2,1, 1,21, 0,23, 0.00,15.00,WinterDesignDay
7,5.9
2,1, 1,21, 0,23,15.00,30.00,WinterDesignDay
7,5.9
2,1, 1,21, 0,23,30.00,45.00,WinterDesignDay
7,5.9
2,1, 1,21, 0,23,45.00,60.00,WinterDesignDay
7,5.9
2,1, 1,21, 0,23, 0.00,60.00,WinterDesignDay
4438,43886.96888342638
2,1, 1,21, 0,24, 0.00,15.00,WinterDesignDay
7,5.9
2,1, 1,21, 0,24,15.00,30.00,WinterDesignDay
7,5.9
2,1, 1,21, 0,24,30.00,45.00,WinterDesignDay
7,5.9
2,1, 1,21, 0,24,45.00,60.00,WinterDesignDay
7,5.9
2,1, 1,21, 0,24, 0.00,60.00,WinterDesignDay
4438,51589.004784558885
1,PALM-SPRINGS-INTL AUG CLG 0.4% CONDNS DB=>MCWB,  33.83,-116.50,  -8.00, 137.00
2,1, 8,21, 0, 1, 0.00,15.00,SummerDesignDay
7,35.144999999999999
2,1, 8,21, 0, 1,15.00,30.00,SummerDesignDay
7,34.95
2,1, 8,21, 0, 1,30.00,45.00,SummerDesignDay
7,34.755
2,1, 8,21, 0, 1,45.00,60.00,SummerDesignDay
7,34.56
2,1, 8,21, 0, 1, 0.00,60.00,SummerDesignDay
4438,0.0
2,1, 8,21, 0, 2, 0.00,15.00,SummerDesignDay
7,34.43
2,1, 8,21, 0, 2,15.00,30.00,SummerDesignDay
7,34.3
2,1, 8,21, 0, 2,30.00,45.00,SummerDesignDay
7,34.17
2,1, 8,21, 0, 2,45.00,60.00,SummerDesignDay
7,34.04
2,1, 8,21, 0, 2, 0.00,60.00,SummerDesignDay
4438,0.0
2,1, 8,21, 0, 3, 0.00,15.00,SummerDesignDay
7,33.9425
2,1, 8,21, 0, 3,15.00,30.00,SummerDesignDay
7,33.845
2,1, 8,21, 0, 3,30.00,45.00,SummerDesignDay
7,33.7475
2,1, 8,21, 0, 3,45.00,60.00,SummerDesignDay
7,33.65
2,1, 8,21, 0, 3, 0.00,60.00,SummerDesignDay
4438,0.0
2,1, 8,21, 0, 4, 0.00,15.00,SummerDesignDay
7,33.5525
2,1, 8,21, 0, 4,15.00,30.00,SummerDesignDay
7,33.455
2,1, 8,21, 0, 4,30.00,45.00,SummerDesignDay
7,33.3575
2,1, 8,21, 0, 4,45.00,60.00,SummerDesignDay
7,33.26
2,1, 8,21, 0, 4, 0.00,60.00,SummerDesignDay
4438,0.0
2,1, 8,21, 0, 5, 0.00,15.00,SummerDesignDay
7,33.195
2,1, 8,21, 0, 5,15.00,30.00,SummerDesignDay
7,33.13
2,1, 8,21, 0, 5,30.00,45.00,SummerDesignDay
7,33.065
2,1, 8,21, 0, 5,45.00,60.00,SummerDesignDay
7,33.0
2,1, 8,21, 0, 5, 0.00,60.00,SummerDesignDay
4438,0.0
2,1, 8,21, 0, 6, 0.00,15.00,SummerDesignDay
7,33.065
2,1, 8,21, 0, 6,15.00,30.00,SummerDesignDay
7,33.13
2,1, 8,21, 0, 6,30.00,45.00,SummerDesignDay
7,33.195
2,1, 8,21, 0, 6,45.00,60.00,SummerDesignDay
7,33.26
2,1, 8,21, 0, 6, 0.00,60.00,SummerDesignDay
4438,0.0
2,1, 8,21, 0, 7, 0.00,15.00,SummerDesignDay
7,33.4875
2,1, 8,21, 0, 7,15.00,30.00,SummerDesignDay
7,33.715
2,1, 8,21, 0, 7,30.00,45.00,SummerDesignDay
7,33.9425
2,1, 8,21, 0, 7,45.00,60.00,SummerDesignDay
7,34.17
2,1, 8,21, 0, 7, 0.00,60.00,SummerDesignDay
4438,0.0
2,1, 8,21, 0, 8, 0.00,15.00,SummerDesignDay
7,34.7225
2,1, 8,21, 0, 8,15.00,30.00,SummerDesignDay
7,35.275
2,1, 8,21, 0, 8,30.00,45.00,SummerDesignDay
7,35.8275
2,1, 8,21, 0, 8,45.00,60.00,SummerDesignDay
7,36.38
2,1, 8,21, 0, 8, 0.00,60.00,SummerDesignDay
4438,0.0
2,1, 8,21, 0, 9, 0.00,15.00,SummerDesignDay
7,36.9975
2,1, 8,21, 0, 9,15.00,30.00,SummerDesignDay
7,37.615
2,1, 8,21, 0, 9,30.00,45.00,SummerDesignDay
7,38.2325
2,1, 8,21, 0, 9,45.00,60.00,SummerDesignDay
7,38.85
2,1, 8,21, 0, 9, 0.00,60.00,SummerDesignDay
4438,0.0
2,1, 8,21, 0,10, 0.00,15.00,SummerDesignDay
7,39.402499999999999
2,1, 8,21, 0,10,15.00,30.00,SummerDesignDay
7,39.955
2,1, 8,21, 0,10,30.00,45.00,SummerDesignDay
7,40.5075
2,1, 8,21, 0,10,45.00,60.00,SummerDesignDay
7,41.06
2,1, 8,21, 0,10, 0.00,60.00,SummerDesignDay
4438,0.0
2,1, 8,21, 0,11, 0.00,15.00,SummerDesignDay
7,41.5475
2,1, 8,21, 0,11,15.00,30.00,SummerDesignDay
7,42.035
2,1, 8,21, 0,11,30.00,45.00,SummerDesignDay
7,42.5225
2,1, 8,21, 0,11,45.00,60.00,SummerDesignDay
7,43.01
2,1, 8,21, 0,11, 0.00,60.00,SummerDesignDay
4438,0.0
2,1, 8,21, 0,12, 0.00,15.00,SummerDesignDay
7,43.335
2,1, 8,21, 0,12,15.00,30.00,SummerDesignDay
7,43.66
2,1, 8,21, 0,12,30.00,45.00,SummerDesignDay
7,43.985
2,1, 8,21, 0,12,45.00,60.00,SummerDesignDay
7,44.31
2,1, 8,21, 0,12, 0.00,60.00,SummerDesignDay
4438,0.0
2,1, 8,21, 0,13, 0.00,15.00,SummerDesignDay
7,44.57
2,1, 8,21, 0,13,15.00,30.00,SummerDesignDay
7,44.83
2,1, 8,21, 0,13,30.00,45.00,SummerDesignDay
7,45.09
2,1, 8,21, 0,13,45.00,60.00,SummerDesignDay
7,45.35
2,1, 8,21, 0,13, 0.00,60.00,SummerDesignDay
4438,0.0
2,1, 8,21, 0,14, 0.00,15.00,SummerDesignDay
7,45.5125
2,1, 8,21, 0,14,15.00,30.00,SummerDesignDay
7,45.675
2,1, 8,21, 0,14,30.00,45.00,SummerDesignDay
7,45.8375
2,1, 8,21, 0,14,45.00,60.00,SummerDesignDay
7,46.0
2,1, 8,21, 0,14, 0.00,60.00,SummerDesignDay
4438,0.0
2,1, 8,21, 0,15, 0.00,15.00,SummerDesignDay
7,46.0
2,1, 8,21, 0,15,15.00,30.00,SummerDesignDay
7,46.0
2,1, 8,21, 0,15,30.00,45.00,SummerDesignDay
7,46.0
2,1, 8,21, 0,15,45.00,60.00,SummerDesignDay
7,46.0
2,1, 8,21, 0,15, 0.00,60.00,SummerDesignDay
4438,0.0
2,1, 8,21, 0,16, 0.00,15.00,SummerDesignDay
7,45.805
2,1, 8,21, 0,16,15.00,30.00,SummerDesignDay
7,45.61
2,1, 8,21, 0,16,30.00,45.00,SummerDesignDay
7,45.415
2,1, 8,21, 0,16,45.00,60.00,SummerDesignDay
7,45.22
2,1, 8,21, 0,16, 0.00,60.00,SummerDesignDay
4438,0.0
2,1, 8,21, 0,17, 0.00,15.00,SummerDesignDay
7,44.96
2,1, 8,21, 0,17,15.00,30.00,SummerDesignDay
7,44.7
2,1, 8,21, 0,17,30.00,45.00,SummerDesignDay
7,44.44
2,1, 8,21, 0,17,45.00,60.00,SummerDesignDay
7,44.18
2,1, 8,21, 0,17, 0.00,60.00,SummerDesignDay
4438,0.0
2,1, 8,21, 0,18, 0.00,15.00,SummerDesignDay
7,43.855
2,1, 8,21, 0,18,15.00,30.00,SummerDesignDay
7,43.53
2,1, 8,21, 0,18,30.00,45.00,SummerDesignDay
7,43.205
2,1, 8,21, 0,18,45.00,60.00,SummerDesignDay
7,42.88
2,1, 8,21, 0,18, 0.00,60.00,SummerDesignDay
4438,0.0
2,1, 8,21, 0,19, 0.00,15.00,SummerDesignDay
7,42.3925
2,1, 8,21, 0,19,15.00,30.00,SummerDesignDay
7,41.905
2,1, 8,21, 0,19,30.00,45.00,SummerDesignDay
7,41.417500000000007
2,1, 8,21, 0,19,45.00,60.00,SummerDesignDay
7,40.93
2,1, 8,21, 0,19, 0.00,60.00,SummerDesignDay
4438,0.0
2,1, 8,21, 0,20, 0.00,15.00,SummerDesignDay
7,40.5725
2,1, 8,21, 0,20,15.00,30.00,SummerDesignDay
7,40.215
2,1, 8,21, 0,20,30.00,45.00,SummerDesignDay
7,39.8575
2,1, 8,21, 0,20,45.00,60.00,SummerDesignDay
7,39.5
2,1, 8,21, 0,20, 0.00,60.00,SummerDesignDay
4438,0.0
2,1, 8,21, 0,21, 0.00,15.00,SummerDesignDay
7,39.2075
2,1, 8,21, 0,21,15.00,30.00,SummerDesignDay
7,38.915
2,1, 8,21, 0,21,30.00,45.00,SummerDesignDay
7,38.6225
2,1, 8,21, 0,21,45.00,60.00,SummerDesignDay
7,38.33
2,1, 8,21, 0,21, 0.00,60.00,SummerDesignDay
4438,0.0
2,1, 8,21, 0,22, 0.00,15.00,SummerDesignDay
7,38.0375
2,1, 8,21, 0,22,15.00,30.00,SummerDesignDay
7,37.745
2,1, 8,21, 0,22,30.00,45.00,SummerDesignDay
7,37.4525
2,1, 8,21, 0,22,45.00,60.00,SummerDesignDay
7,37.16
2,1, 8,21, 0,22, 0.00,60.00,SummerDesignDay
4438,0.0
2,1, 8,21, 0,23, 0.00,15.00,SummerDesignDay
7,36.9325
2,1, 8,21, 0,23,15.00,30.00,SummerDesignDay
7,36.705
2,1, 8,21, 0,23,30.00,45.00,SummerDesignDay
7,36.4775
2,1, 8,21, 0,23,45.00,60.00,SummerDesignDay
7,36.25
2,1, 8,21, 0,23, 0.00,60.00,SummerDesignDay
4438,0.0
2,1, 8,21, 0,24, 0.00,15.00,SummerDesignDay
7,36.0225
2,1, 8,21, 0,24,15.00,30.00,SummerDesignDay
7,35.795
2,1, 8,21, 0,24,30.00,45.00,SummerDesignDay
7,35.5675
2,1, 8,21, 0,24,45.00,60.00,SummerDesignDay
7,35.34
2,1, 8,21, 0,24, 0.00,60.00,SummerDesignDay
4438,0.0
1,PALM-SPRINGS-INTL JUL CLG 0.4% CONDNS DB=>MCWB,  33.83,-116.50,  -8.00, 137.00
2,1, 7,21, 0, 1, 0.00,15.00,SummerDesignDay
7,35.560500000000008
2,1, 7,21, 0, 1,15.00,30.00,SummerDesignDay
7,35.355000000000007
2,1, 7,21, 0, 1,30.00,45.00,SummerDesignDay
7,35.1495
2,1, 7,21, 0, 1,45.00,60.00,SummerDesignDay
7,34.944
2,1, 7,21, 0, 1, 0.00,60.00,SummerDesignDay
4438,0.0
2,1, 7,21, 0, 2, 0.00,15.00,SummerDesignDay
7,34.807
2,1, 7,21, 0, 2,15.00,30.00,SummerDesignDay
7,34.67
2,1, 7,21, 0, 2,30.00,45.00,SummerDesignDay
7,34.533
2,1, 7,21, 0, 2,45.00,60.00,SummerDesignDay
7,34.396
2,1, 7,21, 0, 2, 0.00,60.00,SummerDesignDay
4438,0.0
2,1, 7,21, 0, 3, 0.00,15.00,SummerDesignDay
7,34.29325
2,1, 7,21, 0, 3,15.00,30.00,SummerDesignDay
7,34.1905
2,1, 7,21, 0, 3,30.00,45.00,SummerDesignDay
7,34.08775
2,1, 7,21, 0, 3,45.00,60.00,SummerDesignDay
7,33.985
2,1, 7,21, 0, 3, 0.00,60.00,SummerDesignDay
4438,0.0
2,1, 7,21, 0, 4, 0.00,15.00,SummerDesignDay
7,33.88225
2,1, 7,21, 0, 4,15.00,30.00,SummerDesignDay
7,33.7795
2,1, 7,21, 0, 4,30.00,45.00,SummerDesignDay
7,33.67675
2,1, 7,21, 0, 4,45.00,60.00,SummerDesignDay
7,33.574
2,1, 7,21, 0, 4, 0.00,60.00,SummerDesignDay
4438,0.0
2,1, 7,21, 0, 5, 0.00,15.00,SummerDesignDay
7,33.5055
2,1, 7,21, 0, 5,15.00,30.00,SummerDesignDay
7,33.437
2,1, 7,21, 0, 5,30.00,45.00,SummerDesignDay
7,33.3685
2,1, 7,21, 0, 5,45.00,60.00,SummerDesignDay
7,33.3
2,1, 7,21, 0, 5, 0.00,60.00,SummerDesignDay
4438,0.0
2,1, 7,21, 0, 6, 0.00,15.00,SummerDesignDay
7,33.3685
2,1, 7,21, 0, 6,15.00,30.00,SummerDesignDay
7,33.437
2,1, 7,21, 0, 6,30.00,45.00,SummerDesignDay
7,33.5055
2,1, 7,21, 0, 6,45.00,60.00,SummerDesignDay
7,33.574
2,1, 7,21, 0, 6, 0.00,60.00,SummerDesignDay
4438,0.0
2,1, 7,21, 0, 7, 0.00,15.00,SummerDesignDay
7,33.81375
2,1, 7,21, 0, 7,15.00,30.00,SummerDesignDay
7,34.0535
2,1, 7,21, 0, 7,30.00,45.00,SummerDesignDay
7,34.29325
2,1, 7,21, 0, 7,45.00,60.00,SummerDesignDay
7,34.533
2,1, 7,21, 0, 7, 0.00,60.00,SummerDesignDay
4438,0.0
2,1, 7,21, 0, 8, 0.00,15.00,SummerDesignDay
7,35.11525
2,1, 7,21, 0, 8,15.00,30.00,SummerDesignDay
7,35.697500000000008
2,1, 7,21, 0, 8,30.00,45.00,SummerDesignDay
7,36.27975
2,1, 7,21, 0, 8,45.00,60.00,SummerDesignDay
7,36.862
2,1, 7,21, 0, 8, 0.00,60.00,SummerDesignDay
4438,0.0
2,1, 7,21, 0, 9, 0.00,15.00,SummerDesignDay
7,37.512750000000007
2,1, 7,21, 0, 9,15.00,30.00,SummerDesignDay
7,38.1635
2,1, 7,21, 0, 9,30.00,45.00,SummerDesignDay
7,38.81425
2,1, 7,21, 0, 9,45.00,60.00,SummerDesignDay
7,39.465
2,1, 7,21, 0, 9, 0.00,60.00,SummerDesignDay
4438,0.0
2,1, 7,21, 0,10, 0.00,15.00,SummerDesignDay
7,40.04725
2,1, 7,21, 0,10,15.00,30.00,SummerDesignDay
7,40.6295
2,1, 7,21, 0,10,30.00,45.00,SummerDesignDay
7,41.21175
2,1, 7,21, 0,10,45.00,60.00,SummerDesignDay
7,41.794
2,1, 7,21, 0,10, 0.00,60.00,SummerDesignDay
4438,0.0