Program Version,EnergyPlus, Version 9.0.1-bb7ca4f0da, YMD=2019.12.18 16:13
1,5,Environment Title[],Latitude[deg],Longitude[deg],Time Zone[],Elevation[m]
2,8,Day of Simulation[],Month[],Day of Month[],DST Indicator[1=yes 0=no],Hour[],StartMinute[],EndMinute[],DayType
3,5,Cumulative Day of Simulation[],Month[],Day of Month[],DST Indicator[1=yes 0=no],DayType  ! When Daily Meters Requested
4,2,Cumulative Days of Simulation[],Month[]  ! When Monthly Meters Requested
5,1,Cumulative Days of Simulation[] ! When Run Period Meters Requested
6,1,Calendar Year of Simulation[] ! When Annual Meters Requested
47,1,InteriorLights:Electricity [J] !Hourly
11,1,Electricity:Facility [J] !Hourly
4222,1,Heating:Gas [J] !Hourly
4114,1,Fans:Electricity [J] !Hourly
1497,1,Gas:Facility [J] !Hourly
4235,1,Heating:Electricity [J] !Hourly
993,1,InteriorEquipment:Electricity [J] !Hourly
4471,1,Pumps:Electricity [J] !Hourly
4350,1,Cooling:Electricity [J] !Hourly
2228,1,WaterSystems:Electricity [J] !Hourly
1533,1,InteriorEquipment:Gas [J] !Hourly
2366,1,WaterSystems:Gas [J] !Hourly
1017,1,Receptacle:InteriorEquipment:Electricity [J] !Hourly
1557,1,Receptacle:InteriorEquipment:Gas [J] !Hourly
71,1,ComplianceLtg:InteriorLights:Electricity [J] !Hourly
346,1,NonComplianceLtg:InteriorLights:Electricity [J] !Hourly
4162,1,ProcessMotors:Fans:Electricity [J] !Hourly
4126,1,General:Fans:Electricity [J] !Hourly
End of Data Dictionary
1,BURBANK-GLENDALE_722880_CZ2010,  34.20,-118.35,  -8.00, 226.00
2,1, 1, 1, 0, 1, 0.00,60.00,Holiday
11,66338622.11579247
47,24156278.99999996
71,4835078.999999999
346,19321199.999999968
993,18722069.99999997
1017,18722069.99999997
1497,1039908.7370372624
1533,0.0
1557,0.0
2228,802566.6703821267
2366,1039908.7370372624
4114,22657706.445410395
4126,8458341.339612136
4162,14199365.105798258
4222,0.0
4235,0.0
4350,0.0
4471,0.0
2,1, 1, 1, 0, 2, 0.00,60.00,Holiday
11,67141204.15318826
47,24156278.99999996
71,4835078.999999999
346,19321199.999999968
993,18722069.99999997
1017,18722069.99999997
1497,1039845.4114232261
1533,0.0
1557,0.0
2228,1605148.7077779242
2366,1039845.4114232261
4114,22657706.445410395
4126,8458341.339612136
4162,14199365.105798258
4222,0.0
4235,0.0
4350,0.0
4471,0.0
2,1, 1, 1, 0, 3, 0.00,60.00,Holiday
11,67167918.4236745
47,24156278.99999996
71,4835078.999999999
346,19321199.999999968
993,18722069.99999997
1017,18722069.99999997
1497,1702908.4726165785
1533,0.0
1557,0.0
2228,1604964.3896261752
2366,1135130.1298447089
4114,22684605.034048384
4126,8458341.339612136
4162,14199365.105798258
4222,567778.3427718696
4235,0.0
4350,0.0
4471,0.0
2,1, 1, 1, 0, 4, 0.00,60.00,Holiday
11,66708011.17514132
47,24156278.99999996
71,4835078.999999999
346,19321199.999999968
993,18722069.99999997
1017,18722069.99999997
1497,10070552.911012523
1533,0.0
1557,0.0
2228,796358.5555039198
2366,1198725.0669971712
4114,23033303.619637453
4126,8458341.339612136
4162,14199365.105798258
4222,8871827.844015353
4235,0.0
4350,0.0
4471,0.0
2,1, 1, 1, 0, 5, 0.00,60.00,Holiday
11,68374277.55393403
47,24156278.99999996
71,4835078.999999999
346,19321199.999999968
993,18722069.99999997
1017,18722069.99999997
1497,33171635.01094841
1533,0.0
1557,0.0
2228,1502708.267237268
2366,1034644.7957043569
4114,23993220.286696804
4126,8458341.339612136
4162,14199365.105798258
4222,32136990.215244056
4235,0.0
4350,0.0
4471,0.0
2,1, 1, 1, 0, 6, 0.00,60.00,Holiday
11,127297943.56193196
47,52754678.99999992
71,4835078.999999999
346,47919599.99999992
993,47320469.999999929
1017,47320469.999999929
1497,102011928.17144333
1533,0.0
1557,0.0
2228,886293.7060248375
2366,1041168.6080282874
4114,26336500.855907158
4126,10490501.918585619
4162,14199365.105798258
4222,100970759.56341505
4235,0.0
4350,0.0
4471,0.0
2,1, 1, 1, 0, 7, 0.00,60.00,Holiday
11,194124164.4936256
47,74203478.99999988
71,4835078.999999999
346,69368399.9999999
993,68769269.9999999
1017,68769269.9999999
1497,646407108.5269115
1533,28597212.921243654
1557,28597212.921243654
2228,1604959.5967591247
2366,1166141.6922368017
4114,49546455.89686671
4126,10490501.91858562
4162,14199365.105798258
4222,616643753.913431
4235,0.0
4350,0.0
4471,0.0
2,1, 1, 1, 0, 8, 0.00,60.00,Holiday
11,188977135.46762828
47,74188578.79603786
71,4820178.796037979
346,69368399.9999999
993,68769269.9999999
1017,68769269.9999999
1497,445528548.30310329
1533,28597212.921243654
1557,28597212.921243654
2228,1643321.9052707277
2366,1190014.3424931656
4114,44276269.883234638
4126,14287472.942453269
4162,14199365.105798258
4222,415741321.0393665
4235,160.97060081691053
4350,0.0
4471,99533.91248434055
2,1, 1, 1, 0, 9, 0.00,60.00,Holiday
11,207531227.56270529
47,77785742.68990483
71,8417342.68990495
346,69368399.9999999
993,72641339.99999988
1017,72641339.99999988
1497,804418568.7361096
1533,0.0
1557,0.0
2228,2504467.334745677
2366,1330745.1840813743
4114,53342529.329061377
4126,26075266.523877227
4162,14199365.105798258
4222,803087823.5520283
4235,97389.9632817285
4350,0.0
4471,1159758.2457117739
2,1, 1, 1, 0,10, 0.00,60.00,Holiday
11,194121385.09329499
47,77527906.68663386
71,8159506.686633975
346,69368399.9999999
993,72641339.99999988
1017,72641339.99999988
1497,622415598.8814852
1533,0.0
1557,0.0
2228,2545184.936107804
2366,1343379.329559472
4114,40978310.05240783
4126,16577872.791009469
4162,14199365.105798258
4222,621072219.5519257
4235,66328.23093627177
4350,0.0
4471,362315.1872093141
2,1, 1, 1, 0,11, 0.00,60.00,Holiday
11,192947789.76831533
47,75757758.64254619
71,27838158.64254624
346,47919599.99999992
993,74424959.99999996
1017,74424959.99999996
1497,428960489.73498818
1533,0.0
1557,0.0
2228,5696428.885346003
2366,2026403.9708636418
4114,36795319.31092872
4126,16519577.605455207
4162,14199365.105798258
4222,426934085.7641246
4235,42100.2411522839
4350,0.0
4471,231222.68834223369
2,1, 1, 1, 0,12, 0.00,60.00,Holiday
11,189507608.39645774
47,75855009.93615307
71,27935409.93615312
346,47919599.99999992
993,74424959.99999996
1017,74424959.99999996
1497,309077565.6131605
1533,11438885.168497468
1557,11438885.168497468
2228,5660981.882695178
2366,2056729.3695255786
4114,33324450.03216161
4126,16519577.605455207
4162,14199365.105798258
4222,295581951.0751375
4235,31707.82158776858
4350,0.0
4471,210498.72386022192
2,1, 1, 1, 0,13, 0.00,60.00,Holiday
11,213785349.58458255
47,85853695.37398972
71,37934095.373989749
346,47919599.99999992
993,89913239.99999997
1017,89913239.99999997
1497,159941715.2932156
1533,11438885.168497468
1557,11438885.168497468
2228,6592417.656453006
2366,2414377.702307887
4114,31213266.169573185
4126,16519577.605455207
4162,14199365.105798258
4222,146088452.42241026
4235,13804.443636026801
4350,0.0
4471,198925.9409307217
2,1, 1, 1, 0,14, 0.00,60.00,Holiday
11,214816666.5239779
47,86722633.49332768
71,38803033.493327688
346,47919599.99999992
993,89913239.99999997
1017,89913239.99999997
1497,81002923.5575225
1533,0.0
1557,0.0
2228,7246245.8760615219
2366,2430741.246440253
4114,30730901.205543646
4126,16519985.132813869
4162,14199365.105798258
4222,78572182.31108226
4235,5311.6989881233189
4350,0.0
4471,198334.25005703086
2,1, 1, 1, 0,15, 0.00,60.00,Holiday
11,216652405.01618297
47,87653360.9771864
71,39733760.97718642
346,47919599.99999992
993,89913239.99999997
1017,89913239.99999997
1497,59239414.93044412
1533,0.0
1557,0.0
2228,6088844.042479107
2366,2089625.3399143536
4114,30719146.474932799
4126,16519781.369134538
4162,14199365.105798258
4222,57149789.59052977
4235,2773.0291692502516
4350,2076441.890279612
4471,198598.60213587443
2,1, 1, 1, 0,16, 0.00,60.00,Holiday
11,218293847.11026029
47,88041263.01937317
71,40121663.01937319
346,47919599.99999992
993,89913239.99999997
1017,89913239.99999997
1497,55355945.113820198
1533,0.0
1557,0.0
2228,6373302.293927768
2366,2389752.2151126118
4114,30718942.711253466
4126,16519577.605455207
4162,14199365.105798258
4222,52966192.89870759
4235,2288.688805178761
4350,3046143.146843829
4471,198667.2500569475
2,1, 1, 1, 0,17, 0.00,60.00,Holiday
11,219016756.3677432
47,89573286.60702279
71,41653686.607022818
346,47919599.99999992
993,89913239.99999997
1017,89913239.99999997
1497,85091815.73793349
1533,28597212.921243654
1557,28597212.921243654
2228,7088873.211445161
2366,2113602.839198523
4114,30718942.711253466
4126,16519577.605455207
4162,14199365.105798258
4222,54380999.977491308
4235,2067.492103111178
4350,1521648.7622025286
4471,198697.58371623484
2,1, 1, 1, 0,18, 0.00,60.00,Holiday
11,190300498.9281677
47,78647111.99999994
71,30727511.99999999
346,47919599.99999992
993,74424959.99999996
1017,74424959.99999996
1497,126592472.6520942
1533,28597212.921243654
1557,28597212.921243654
2228,6302625.486171345
2366,2377198.9678786166
4114,30718942.711253466
4126,16519577.605455207
4162,14199365.105798258
4222,95618060.76297194
4235,8693.437788271001
4350,0.0
4471,198165.29295477487
2,1, 1, 1, 0,19, 0.00,60.00,Holiday
11,242514390.8212147
47,106749035.99999982
71,15931835.999999995
346,90817199.99999984
993,101834279.99999984
1017,101834279.99999984
1497,137525191.34033234
1533,28597212.921243654
1557,28597212.921243654
2228,5024720.514556713
2366,1701697.4396963255
4114,28686782.132279979
4126,14487417.026481722
4162,14199365.105798258
4222,107226280.97939237
4235,19197.839303514695
4350,0.0
4471,200374.33507477348
2,1, 1, 1, 0,20, 0.00,60.00,Holiday
11,270852239.656134
47,124250678.9999998
71,4835078.999999999
346,119415599.9999998
993,118816469.99999982
1017,118816469.99999982
1497,2005658.9880740043
1533,0.0
1557,0.0
2228,5127384.210723927
2366,2005658.9880740043
4114,22657706.445410395
4126,8458341.339612136
4162,14199365.105798258
4222,0.0
4235,0.0
4350,0.0
4471,0.0
2,1, 1, 1, 0,21, 0.00,60.00,Holiday
11,297923314.6349818
47,138549878.9999998
71,4835078.999999999
346,133714799.99999979
993,133115669.99999979
1017,133115669.99999979
1497,1668059.708926151
1533,0.0
1557,0.0
2228,3600059.1895717505
2366,1668059.708926151
4114,22657706.445410395
4126,8458341.339612136
4162,14199365.105798258
4222,0.0
4235,0.0
4350,0.0
4471,0.0
2,1, 1, 1, 0,22, 0.00,60.00,Holiday
11,269175482.9960307
47,124250678.9999998
71,4835078.999999999
346,119415599.9999998
993,118816469.99999982
1017,118816469.99999982
1497,1364837.202596361
1533,0.0
1557,0.0
2228,3450627.550620537
2366,1364837.202596361
4114,22657706.445410395
4126,8458341.339612136
4162,14199365.105798258
4222,0.0
4235,0.0
4350,0.0
4471,0.0
2,1, 1, 1, 0,23, 0.00,60.00,Holiday
11,210171197.34961928
47,95652278.99999984
71,4835078.999999999
346,90817199.99999984
993,90218069.99999985
1017,90218069.99999985
1497,1317991.516355108
1533,0.0
1557,0.0
2228,1643141.9042091426
2366,1317991.516355108
4114,22657706.445410395
4126,8458341.339612136
4162,14199365.105798258
4222,0.0
4235,0.0
4350,0.0
4471,0.0
2,1, 1, 1, 0,24, 0.00,60.00,Holiday
11,124325581.76702327
47,52754678.99999992
71,4835078.999999999
346,47919599.99999992
993,47320469.999999929
1017,47320469.999999929
1497,1035073.265050917
1533,0.0
1557,0.0
2228,1592726.3216129328
2366,1035073.265050917
4114,22657706.445410395
4126,8458341.339612136
4162,14199365.105798258
4222,0.0
4235,0.0
4350,0.0
4471,0.0
2,2, 1, 2, 0, 1, 0.00,60.00,Friday
11,66320418.815337289
47,24156278.99999996
71,4835078.999999999
346,19321199.999999968
993,18722069.99999997
1017,18722069.99999997
1497,1027744.223076717
1533,0.0
1557,0.0
2228,784363.3699269482
2366,1027744.223076717
4114,22657706.445410395
4126,8458341.339612136
4162,14199365.105798258
4222,0.0
4235,0.0
4350,0.0
4471,0.0
2,2, 1, 2, 0, 2, 0.00,60.00,Friday
11,66326324.80004353
47,24156278.99999996
71,4835078.999999999
346,19321199.999999968
993,18722069.99999997
1017,18722069.99999997
1497,1032490.8539796145
1533,0.0
1557,0.0
2228,790269.3546331948
2366,1032490.8539796145
4114,22657706.445410395
4126,8458341.339612136
4162,14199365.105798258
4222,0.0
4235,0.0
4350,0.0
4471,0.0
2,2, 1, 2, 0, 3, 0.00,60.00,Friday
11,66326270.1342567
47,24156278.99999996
71,4835078.999999999
346,19321199.999999968
993,18722069.99999997
1017,18722069.99999997
1497,1044750.1565550817
1533,0.0
1557,0.0
2228,790214.6888463588
2366,1044750.1565550817
4114,22657706.445410395
4126,8458341.339612136
4162,14199365.105798258
4222,0.0
4235,0.0
4350,0.0
4471,0.0
2,2, 1, 2, 0, 4, 0.00,60.00,Friday
11,66320411.676333878
47,24156278.99999996
71,4835078.999999999
346,19321199.999999968
993,18722069.99999997
1017,18722069.99999997
1497,1015770.003714137
1533,0.0
1557,0.0
2228,784356.230923534
2366,1015770.003714137
4114,22657706.445410395
4126,8458341.339612136
4162,14199365.105798258
4222,0.0
4235,0.0
4350,0.0
4471,0.0
2,2, 1, 2, 0, 5, 0.00,60.00,Friday
11,66320418.35354654
47,24156278.99999996
71,4835078.999999999
346,19321199.999999968
993,18722069.99999997
1017,18722069.99999997
1497,1027860.3402173203
1533,0.0
1557,0.0
2228,784362.9081362018
2366,1027860.3402173203
4114,22657706.445410395
4126,8458341.339612136
4162,14199365.105798258
4222,0.0
4235,0.0
4350,0.0
4471,0.0
2,2, 1, 2, 0, 6, 0.00,60.00,Friday
11,127236397.57625458
47,53890838.99999992
71,5971238.999999999
346,47919599.99999992
993,47871269.999999929
1017,47871269.999999929
1497,61263701.02314325
1533,0.0
1557,0.0
2228,784421.5518707503
2366,1203995.2737812049
4114,24689867.024383878
4126,10490501.918585619
4162,14199365.105798258
4222,60059705.74936205
4235,0.0
4350,0.0
4471,0.0
2,2, 1, 2, 0, 7, 0.00,60.00,Friday
11,197858460.88751299
47,80361638.99999988
71,5971238.999999999
346,74390399.99999988
993,69320069.9999999
1017,69320069.9999999
1497,623924414.7728148
1533,28597212.921243654
1557,28597212.921243654
2228,784371.5211078002
2366,1119824.4390399703
4114,46615781.41489139
4126,23563804.451817588
4162,14199365.105798258
4222,594207377.4125311
4235,68319.02861977984
4350,0.0
4471,708279.9228942213
2,2, 1, 2, 0, 8, 0.00,60.00,Friday
11,218403873.66819266
47,95977533.23177418
71,21587133.23177432
346,74390399.99999988
993,83139479.99999988
1017,83139479.99999988
1497,443837229.86730208
1533,28882321.086319496
1557,28882321.086319496
2228,3105323.506679883
2366,1672373.7235998866
4114,35888226.52985731
4126,16541521.89331348
4162,14199365.105798258
4222,413282535.0573826
4235,43989.04008716249
4350,0.0
4471,249321.35979422308
2,2, 1, 2, 0, 9, 0.00,60.00,Friday
11,278307621.67814829
47,125860367.00189926
71,51469967.001899387
346,74390399.99999988
993,112981499.99999987
1017,112981499.99999987
1497,329243087.4855783
1533,285108.16507584266
1557,285108.16507584266
2228,4007032.903340484
2366,2107878.7909080774
4114,35219896.3889284
4126,16519577.605455207
4162,14199365.105798258
4222,326850100.5295944
4235,29803.997282288004
4350,0.0
4471,209021.38669792599
2,2, 1, 2, 0,10, 0.00,60.00,Friday
11,337016542.209612
47,151141923.8220826
71,76751523.82208266
346,74390399.99999988
993,143958059.99999995
1017,143958059.99999995
1497,286471010.8279798
1533,285108.16507584266
1557,285108.16507584266
2228,5977605.775596388
2366,2869404.3206538336
4114,35717012.847098577
4126,16564207.244214645
4162,14199365.105798258
4222,283316498.3422501
4235,20312.67461637569
4350,0.0
4471,201627.09021815813
2,2, 1, 2, 0,11, 0.00,60.00,Friday
11,297749479.4052429
47,129394751.99721805
71,76453151.99721805
346,52941599.9999999
993,122509259.99999996
1017,122509259.99999996
1497,335102837.16157266
1533,513194.69713651677
1557,513194.69713651677
2228,7919093.88627799
2366,3032431.755948283
4114,37702646.683597918
4126,16608727.179959685
4162,14199365.105798258
4222,331557210.70848789
4235,21291.162743819288
4350,0.0
4471,202435.67540532049
2,2, 1, 2, 0,12, 0.00,60.00,Friday
11,300655581.19398239
47,129177946.71103645
71,76236346.71103648
346,52941599.9999999
993,122509259.99999996
1017,122509259.99999996
1497,340780050.5807011
1533,11952079.865633984
1557,11952079.865633984
2228,11107479.969790396
2366,3816657.3052263127
4114,37636994.74250044
4126,16846939.695823879
4162,14199365.105798258
4222,325011313.4098408
4235,21345.34526667046
4350,0.0
4471,202554.42538854687
2,2, 1, 2, 0,13, 0.00,60.00,Friday
11,299627307.20024618
47,128773252.1174432
71,75831652.11744322
346,52941599.9999999
993,122509259.99999996
1017,122509259.99999996
1497,297736568.6950704
1533,11952079.865633984
1557,11952079.865633984
2228,11596785.485121213
2366,4120114.4040751459
4114,36528987.87593317
4126,16912313.308048078
4162,14199365.105798258
4222,281664374.4253613
4235,18316.600769545053
4350,0.0
4471,200705.12097922993
2,2, 1, 2, 0,14, 0.00,60.00,Friday
11,297319146.2433457
47,128124654.22739439
71,75183054.2273944
346,52941599.9999999
993,122509259.99999996
1017,122509259.99999996
1497,248865807.40326453
1533,513194.69713651677
1557,513194.69713651677
2228,11062257.63516935
2366,4274453.227640782
4114,35406816.337285879
4126,16967913.052877487
4162,14199365.105798258
4222,244078159.47848726
4235,16486.1163655304
4350,0.0
4471,199671.9271306934
2,2, 1, 2, 0,15, 0.00,60.00,Friday
11,295424194.01561477
47,128440623.19704458
71,75499023.19704458
346,52941599.9999999
993,122509259.99999996
1017,122509259.99999996
1497,206736453.6625319
1533,427662.2476137639
1557,427662.2476137639
2228,9640022.438404579
2366,3243277.724277128
4114,34622053.61513756
4126,17122565.846496017
4162,14199365.105798258
4222,203065513.69064106
4235,13458.658922816347
4350,0.0
4471,198776.1061052645
2,2, 1, 2, 0,16, 0.00,60.00,Friday
11,292661393.9741676
47,127362452.06459692
71,74420852.06459695
346,52941599.9999999
993,122509259.99999996
1017,122509259.99999996
1497,159754192.56481869
1533,427662.2476137639
1557,427662.2476137639
2228,8929605.210387834
2366,3057860.250562303
4114,33650710.64309526
4126,17501317.200462555
4162,14199365.105798258
4222,156268670.0666426
4235,11061.245003204718
4350,0.0
4471,198304.81108456045
2,2, 1, 2, 0,17, 0.00,60.00,Friday
11,294536204.17513206
47,130202639.00150176
71,77261039.00150177
346,52941599.9999999
993,122509259.99999996
1017,122509259.99999996
1497,178235528.52268113
1533,29024875.168857416
1557,29024875.168857416
2228,8239735.547100838
2366,3521620.9076243827
4114,33375724.248021924
4126,17491259.896401444
4162,14199365.105798258
4222,145689032.44619934
4235,10587.61553501161
4350,0.0
4471,198257.762972655
2,2, 1, 2, 0,18, 0.00,60.00,Friday
11,284972590.369068
47,123776342.99999996
71,70834742.99999997
346,52941599.9999999
993,118102859.99999997
1017,118102859.99999997
1497,205927794.93535144
1533,29024875.168857416
1557,29024875.168857416
2228,9309897.305510886
2366,3038327.5820616299
4114,33573822.96126977
4126,17066609.50458964
4162,14199365.105798258
4222,173864592.1844324
4235,11349.434409578455
4350,0.0
4471,198317.66787789903
2,2, 1, 2, 0,19, 0.00,60.00,Friday
11,318130712.557389
47,143344268.99999986
71,47505068.99999999
346,95839199.99999984
993,135564839.99999989
1017,135564839.99999989
1497,177177802.31392116
1533,28597212.921243654
1557,28597212.921243654
2228,7711576.9911845349
2366,2867389.5250739867
4114,31297373.704510008
4126,16699886.162170029
4162,14199365.105798258
4222,145713199.86760355
4235,13904.035766699903
4350,0.0
4471,198748.8259280855
2,2, 1, 2, 0,20, 0.00,60.00,Friday
11,373214382.7529042
47,171942668.99999974
71,47505068.99999999
346,124437599.9999998
993,164163239.99999974
1017,164163239.99999974
1497,138878690.67321516
1533,0.0
1557,0.0
2228,6089733.222921467
2366,2196433.985584622
4114,30806392.863853367
4126,16561870.342097067
4162,14199365.105798258
4222,136682256.68763054
4235,13627.28290421148
4350,0.0
4471,198720.38322545915
2,2, 1, 2, 0,21, 0.00,60.00,Friday
11,387362161.6490085
47,180270629.9999997
71,41533829.999999988
346,138736799.9999998
993,169616699.99999974
1017,169616699.99999974
1497,140926505.02110706
1533,0.0
1557,0.0
2228,6524352.775620137
2366,2418818.8572476685
4114,30737605.25188013
4126,16519577.605455207
4162,14199365.105798258
4222,138507686.1638594
4235,14053.841899767165
4350,0.0
4471,198819.77960889427
2,2, 1, 2, 0,22, 0.00,60.00,Friday
11,304715894.918466
47,143777915.9999998
71,19340315.999999998
346,124437599.9999998
993,132085079.9999998
1017,132085079.9999998
1497,62276322.71913192
1533,0.0
1557,0.0
2228,4131004.432238396
2366,1982886.727110804
4114,24721894.486227897
4126,10490501.918585619
4162,14199365.105798258
4222,60293435.99202111
4235,0.0
4350,0.0
4471,0.0
2,2, 1, 2, 0,23, 0.00,60.00,Friday
11,214772147.12348665
47,96788438.99999984
71,5971238.999999999
346,90817199.99999984
993,90768869.99999985
1017,90768869.99999985
1497,60957947.55708907
1533,0.0
1557,0.0
2228,2524971.0991030118
2366,1339797.6608195995
4114,24689867.024383878
4126,10490501.918585619
4162,14199365.105798258
4222,59618149.89626947
4235,0.0
4350,0.0
4471,0.0
2,2, 1, 2, 0,24, 0.00,60.00,Friday
11,126382506.19600283
47,52754678.99999992
71,4835078.999999999
346,47919599.99999992
993,47320469.999999929
1017,47320469.999999929
1497,60664888.03983534
1533,0.0
1557,0.0
2228,1617490.1716189967
2366,1046738.1435658664
4114,24689867.024383878
4126,10490501.918585619
4162,14199365.105798258
4222,59618149.89626947
4235,0.0
4350,0.0
4471,0.0
2,3, 1, 3, 0, 1, 0.00,60.00,Saturday
11,68020718.48819004
47,24156278.99999996
71,4835078.999999999
346,19321199.999999968
993,18722069.99999997
1017,18722069.99999997
1497,1327113.7558580386
1533,0.0
1557,0.0
2228,2484663.042779699
2366,1327113.7558580386
4114,22657706.445410395
4126,8458341.339612136
4162,14199365.105798258
4222,0.0
4235,0.0
4350,0.0
4471,0.0
2,3, 1, 3, 0, 2, 0.00,60.00,Saturday
11,67179409.58403045
47,24156278.99999996
71,4835078.999999999
346,19321199.999999968
993,18722069.99999997
1017,18722069.99999997
1497,1320758.453221632
1533,0.0
1557,0.0
2228,1643354.1386201098
2366,1320758.453221632
4114,22657706.445410395
4126,8458341.339612136
4162,14199365.105798258
4222,0.0
4235,0.0
4350,0.0
4471,0.0
2,3, 1, 3, 0, 3, 0.00,60.00,Saturday
11,67153655.26766868
47,24156278.99999996
71,4835078.999999999
346,19321199.999999968
993,18722069.99999997
1017,18722069.99999997
1497,1046730.2897700055
1533,0.0
1557,0.0
2228,1617599.8222583393
2366,1046730.2897700055
4114,22657706.445410395
4126,8458341.339612136
4162,14199365.105798258
4222,0.0
4235,0.0
4350,0.0
4471,0.0
2,3, 1, 3, 0, 4, 0.00,60.00,Saturday
11,66386373.30027538
47,24156278.99999996
71,4835078.999999999
346,19321199.999999968
993,18722069.99999997
1017,18722069.99999997
1497,2445232.6720606258
1533,0.0
1557,0.0
2228,796351.5622203335
2366,1296417.8472883432
4114,22711672.738055096
4126,8458341.339612136
4162,14199365.105798258
4222,1148814.8247722826
4235,0.0
4350,0.0
4471,0.0
2,3, 1, 3, 0, 5, 0.00,60.00,Saturday
11,67495613.88907765
47,24156278.99999996
71,4835078.999999999
346,19321199.999999968
993,18722069.99999997
1017,18722069.99999997
1497,9624577.494340752
1533,0.0
1557,0.0
2228,1592815.913293682
2366,1036694.8045765865
4114,23024448.975784027
4126,8458341.339612136
4162,14199365.105798258
4222,8587882.689764165
4235,0.0
4350,0.0
4471,0.0
2,3, 1, 3, 0, 6, 0.00,60.00,Saturday
11,126032791.5640106
47,52754678.99999992
71,4835078.999999999
346,47919599.99999992
993,47320469.999999929
1017,47320469.999999929
1497,73271946.89284335
1533,0.0
1557,0.0
2228,796359.4595645327
2366,1043301.2045489976
4114,25161283.104446144
4126,10490501.918585619
4162,14199365.105798258
4222,72228645.68829435
4235,0.0
4350,0.0
4471,0.0
2,3, 1, 3, 0, 7, 0.00,60.00,Saturday
11,206726690.5328956
47,80361638.99999988
71,5971238.999999999
346,74390399.99999988
993,69320069.9999999
1017,69320069.9999999
1497,902302473.9544724
1533,28597212.921243654
1557,28597212.921243654
2228,1605011.5103514016
2366,1307678.2188470169
4114,54704186.957849267
4126,20490905.656358325
4162,14199365.105798258
4222,872397582.8143817
4235,75641.04319346465
4350,0.0
4471,660142.0215016591
2,3, 1, 3, 0, 8, 0.00,60.00,Saturday
11,200349217.03852857
47,83689396.5292522
71,9298996.529252323
346,74390399.99999988
993,73192139.99999988
1017,73192139.99999988
1497,573346134.1528878
1533,28597212.921243654
1557,28597212.921243654
2228,3569814.7634011295
2366,1685241.5181527546
4114,39565585.60253444
4126,16519577.605455207
4162,14199365.105798258
4222,543063679.7134914
4235,54543.22369754361
4350,0.0
4471,277736.9196433883
2,3, 1, 3, 0, 9, 0.00,60.00,Saturday
11,231898882.73531033
47,101420714.63412495
71,27030314.634125096
346,74390399.99999988
993,90883619.99999987
1017,90883619.99999987
1497,373563117.9454684
1533,285108.16507584266
1557,285108.16507584266
2228,4622337.138428179
2366,2024247.7316238934
4114,34707466.14429788
4126,16519577.605455207
4162,14199365.105798258
4222,371253762.04876878
4235,40140.1155692791
4350,0.0
4471,224604.70289011679
2,3, 1, 3, 0,10, 0.00,60.00,Saturday
11,270822102.0740006
47,118144161.57096066
71,43753761.570960778
346,74390399.99999988
993,114116039.99999988
1017,114116039.99999988
1497,249211804.84894527
1533,285108.16507584266
1557,285108.16507584266
2228,5445525.895776029
2366,2084437.2718139822
4114,32886656.099055694
4126,16563723.668729946
4162,14199365.105798258
4222,246842259.41205547
4235,24687.393027122187
4350,0.0
4471,205031.11518114428
2,3, 1, 3, 0,11, 0.00,60.00,Saturday
11,273495907.80189487
47,116729003.71220626
71,63787403.71220629
346,52941599.9999999
993,115899659.99999997
1017,115899659.99999997
1497,207693411.641271
1533,513194.69713651677
1557,513194.69713651677
2228,8007064.213279348
2366,2897546.071958324
4114,32640805.628659756
4126,16672127.373806609
4162,14199365.105798258
4222,204282670.87217615
4235,18544.563164141386
4350,0.0
4471,200829.68458547677
2,3, 1, 3, 0,12, 0.00,60.00,Saturday
11,275100604.22520139
47,116689395.46291931
71,63747795.46291933
346,52941599.9999999
993,115899659.99999997
1017,115899659.99999997
1497,176933462.24213878
1533,11952079.865633984
1557,11952079.865633984
2228,10102001.220428206
2366,3146306.8392729025
4114,32146656.77603654
4126,16944945.59474269
4162,14199365.105798258
4222,161835075.53723187
4235,14228.87350271464
4350,49655.81021378131
4471,199006.08210094446
2,3, 1, 3, 0,13, 0.00,60.00,Saturday
11,271516818.11424317
47,113400758.9089941
71,60459158.90899411
346,52941599.9999999
993,114247259.99999997
1017,114247259.99999997
1497,141644838.27068977
1533,11952079.865633984
1557,11952079.865633984
2228,10759353.829863932
2366,3578398.950095283
4114,31886902.63499002
4126,17021639.556252354
4162,14199365.105798258
4222,126114359.45496047
4235,10156.560990206388
4350,1014129.8759709139
4471,198256.3034341927
2,3, 1, 3, 0,14, 0.00,60.00,Saturday
11,274410841.5691099
47,113473118.25458104
71,60531518.25458105
346,52941599.9999999
993,114247259.99999997
1017,114247259.99999997
1497,91550025.93254069
1533,513194.69713651677
1557,513194.69713651677
2228,11343006.018760473
2366,3563984.9546290517
4114,32368777.983995886
4126,17565495.0993162
4162,14199365.105798258
4222,87472846.28077513
4235,5111.393537309983
4350,2775238.2886223436
4471,198329.62961302623
2,3, 1, 3, 0,15, 0.00,60.00,Saturday
11,272936047.9224365
47,113057626.56421721
71,60116026.56421723
346,52941599.9999999
993,114247259.99999997
1017,114247259.99999997
1497,84587941.47299636
1533,427662.2476137639
1557,427662.2476137639
2228,9137483.515092776
2366,2940703.684236531
4114,32968710.09376629
4126,18085371.132985046
4162,14199365.105798258
4222,81219575.54114606
4235,3985.8248849496997
4350,3322552.705534794
4471,198429.2189405477
2,3, 1, 3, 0,16, 0.00,60.00,Saturday
11,272693584.756407
47,113358328.24261497
71,60416728.24261499
346,52941599.9999999
993,114247259.99999997
1017,114247259.99999997
1497,75900901.19844994
1533,427662.2476137639
1557,427662.2476137639
2228,9411986.87148994
2366,2728173.782191058
4114,33062678.835477394
4126,18349464.225247757
4162,14199365.105798258
4222,72745065.16864513
4235,2471.762517707558
4350,2412199.6729655966
4471,198659.37134158985
2,3, 1, 3, 0,17, 0.00,60.00,Saturday
11,274059369.6445053
47,117537902.28360252
71,64596302.28360254
346,52941599.9999999
993,114247259.99999997
1017,114247259.99999997
1497,114140208.04107173
1533,29024875.168857416
1557,29024875.168857416
2228,8741101.257303976
2366,2909133.055789497
4114,32864089.98644892
4126,18485960.96496696
4162,14199365.105798258
4222,82206199.81642482
4235,3808.988148084145
4350,466739.5941036432
4471,198467.53489827796
2,3, 1, 3, 0,18, 0.00,60.00,Saturday
11,266235856.41932107
47,111937382.99999996
71,64017782.99999998
346,47919599.99999992
993,113145659.99999997
1017,113145659.99999997
1497,155974745.63661609
1533,28597212.921243654
1557,28597212.921243654
2228,8608742.590129685
2366,2877661.4462905677
4114,32336095.354870093
4126,17742521.706907054
4162,14199365.105798258
4222,124499871.26908186
4235,9761.947695794428
4350,0.0
4471,198213.52662566119
2,3, 1, 3, 0,19, 0.00,60.00,Saturday
11,293173826.98263975
47,128942549.99999987
71,38125349.999999988
346,90817199.99999984
993,125066699.99999988
1017,125066699.99999988
1497,187944509.66194848
1533,28597212.921243654
1557,28597212.921243654
2228,8146901.086444613
2366,2528502.0044461369
4114,30800986.09754687
4126,16523175.63264477
4162,14199365.105798258
4222,156818794.73625873
4235,16963.134272557658
4350,0.0
4471,199726.66437592559
2,3, 1, 3, 0,20, 0.00,60.00,Saturday
11,316858125.26904138
47,142745273.9999998
71,23329673.999999994
346,119415599.9999998
993,138176819.9999998
1017,138176819.9999998
1497,135691919.7378503
1533,0.0
1557,0.0
2228,6995269.712416925
2366,2419291.1528440818
4114,28712956.43429676
4126,14487417.026481722
4162,14199365.105798258
4222,133272628.58500624
4235,23729.73266697964
4350,0.0
4471,204075.3896610461
2,3, 1, 3, 0,21, 0.00,60.00,Saturday
11,344282056.34811827
47,157044473.99999977
71,23329673.999999994
346,133714799.99999979
993,152476019.99999977
1017,152476019.99999977
1497,170370005.78028513
1533,0.0
1557,0.0
2228,5804879.628683449
2366,2040148.3208989795
4114,28717416.036481084
4126,14487417.026481722
4162,14199365.105798258
4222,168329857.45938615
4235,29983.996374496157
4350,0.0
4471,209282.68657952627
2,3, 1, 3, 0,22, 0.00,60.00,Saturday
11,283276727.7731759
47,127949597.9999998
71,8533997.999999999
346,119415599.9999998
993,122688539.9999998
1017,122688539.9999998
1497,217318179.98280946
1533,0.0
1557,0.0
2228,3632431.5688540434
2366,1694726.8126895759
4114,28747160.528158159
4126,14487417.026481722
4162,14199365.105798258