Program Version,EnergyPlus, Version 9.0.1-bb7ca4f0da, YMD=2019.12.17 17:38
1,5,Environment Title[],Latitude[deg],Longitude[deg],Time Zone[],Elevation[m]
2,8,Day of Simulation[],Month[],Day of Month[],DST Indicator[1=yes 0=no],Hour[],StartMinute[],EndMinute[],DayType
3,5,Cumulative Day of Simulation[],Month[],Day of Month[],DST Indicator[1=yes 0=no],DayType  ! When Daily Meters Requested
4,2,Cumulative Days of Simulation[],Month[]  ! When Monthly Meters Requested
5,1,Cumulative Days of Simulation[] ! When Run Period Meters Requested
6,1,Calendar Year of Simulation[] ! When Annual Meters Requested
4210,1,Heating:Electricity [J] !Hourly
993,1,InteriorEquipment:Electricity [J] !Hourly
47,1,InteriorLights:Electricity [J] !Hourly
4236,1,Heating:Gas [J] !Hourly
11,1,Electricity:Facility [J] !Hourly
4473,1,Pumps:Electricity [J] !Hourly
4114,1,Fans:Electricity [J] !Hourly
4348,1,Cooling:Electricity [J] !Hourly
1533,1,InteriorEquipment:Gas [J] !Hourly
2228,1,WaterSystems:Electricity [J] !Hourly
1497,1,Gas:Facility [J] !Hourly
2366,1,WaterSystems:Gas [J] !Hourly
1017,1,Receptacle:InteriorEquipment:Electricity [J] !Hourly
1557,1,Receptacle:InteriorEquipment:Gas [J] !Hourly
71,1,ComplianceLtg:InteriorLights:Electricity [J] !Hourly
346,1,NonComplianceLtg:InteriorLights:Electricity [J] !Hourly
4126,1,General:Fans:Electricity [J] !Hourly
4162,1,ProcessMotors:Fans:Electricity [J] !Hourly
End of Data Dictionary
1,BURBANK-GLENDALE_722880_CZ2010,  34.20,-118.35,  -8.00, 226.00
2,1, 1, 1, 0, 1, 0.00,60.00,Holiday
11,66338622.11579247
47,24156278.99999996
71,4835078.999999999
346,19321199.999999968
993,18722069.99999997
1017,18722069.99999997
1497,1039908.7370372624
1533,0.0
1557,0.0
2228,802566.6703821267
2366,1039908.7370372624
4114,22657706.445410395
4126,8458341.339612136
4162,14199365.105798258
4210,0.0
4236,0.0
4348,0.0
4473,0.0
2,1, 1, 1, 0, 2, 0.00,60.00,Holiday
11,67141204.15318826
47,24156278.99999996
71,4835078.999999999
346,19321199.999999968
993,18722069.99999997
1017,18722069.99999997
1497,1039845.4114232261
1533,0.0
1557,0.0
2228,1605148.7077779242
2366,1039845.4114232261
4114,22657706.445410395
4126,8458341.339612136
4162,14199365.105798258
4210,0.0
4236,0.0
4348,0.0
4473,0.0
2,1, 1, 1, 0, 3, 0.00,60.00,Holiday
11,67165198.49526572
47,24156278.99999996
71,4835078.999999999
346,19321199.999999968
993,18722069.99999997
1017,18722069.99999997
1497,1681743.6807473037
1533,0.0
1557,0.0
2228,1604964.3896261752
2366,1135130.1298447089
4114,22681885.105639597
4126,8458341.339612136
4162,14199365.105798258
4210,0.0
4236,546613.5509025948
4348,0.0
4473,0.0
2,1, 1, 1, 0, 4, 0.00,60.00,Holiday
11,66710187.76209026
47,24156278.99999996
71,4835078.999999999
346,19321199.999999968
993,18722069.99999997
1017,18722069.99999997
1497,9739152.849556618
1533,0.0
1557,0.0
2228,796358.5555039198
2366,1198725.0669971712
4114,23035480.20658639
4126,8458341.339612136
4162,14199365.105798258
4210,0.0
4236,8540427.782559447
4348,0.0
4473,0.0
2,1, 1, 1, 0, 5, 0.00,60.00,Holiday
11,68426249.9452484
47,24156278.99999996
71,4835078.999999999
346,19321199.999999968
993,18722069.99999997
1017,18722069.99999997
1497,32401894.835991566
1533,0.0
1557,0.0
2228,1502708.267237268
2366,1034644.7957043569
4114,24045192.67801116
4126,8458341.339612136
4162,14199365.105798258
4210,0.0
4236,31367250.04028721
4348,0.0
4473,0.0
2,1, 1, 1, 0, 6, 0.00,60.00,Holiday
11,167058117.66564978
47,52754678.99999992
71,4835078.999999999
346,47919599.99999992
993,47320469.999999929
1017,47320469.999999929
1497,39988710.61533261
1533,0.0
1557,0.0
2228,886293.6963758264
2366,1041298.3318088466
4114,26412650.9606021
4126,10490501.918585619
4162,14199365.105798258
4210,39684024.008671898
4236,38947412.28352377
4348,0.0
4473,0.0
2,1, 1, 1, 0, 7, 0.00,60.00,Holiday
11,236966284.37870286
47,74203478.99999988
71,4835078.999999999
346,69368399.9999999
993,68769269.9999999
1017,68769269.9999999
1497,574645461.3570755
1533,28597212.921243654
1557,28597212.921243654
2228,1605117.8278409988
2366,1166328.9154874725
4114,48791953.59224458
4126,10490501.918585619
4162,14199365.105798258
4210,43596463.95861746
4236,544881919.5203444
4348,0.0
4473,0.0
2,1, 1, 1, 0, 8, 0.00,60.00,Holiday
11,232056852.4990638
47,74188578.79603786
71,4820178.796037979
346,69368399.9999999
993,68769269.9999999
1017,68769269.9999999
1497,379456678.22588726
1533,28597212.921243654
1557,28597212.921243654
2228,1643322.114352898
2366,1190008.5405634507
4114,42036350.08683579
4126,12388987.430519445
4162,14199365.105798258
4210,45369563.81907446
4236,349669456.76408019
4348,0.0
4473,49767.68276292778
2,1, 1, 1, 0, 9, 0.00,60.00,Holiday
11,248858009.82394917
47,77785742.68990483
71,8417342.68990495
346,69368399.9999999
993,72641339.99999988
1017,72641339.99999988
1497,738038697.5892563
1533,0.0
1557,0.0
2228,2504467.660367729
2366,1330745.6545187375
4114,52980657.61070912
4126,26080911.106630047
4162,14199365.105798258
4210,41790021.81777855
4236,736707951.9347376
4348,0.0
4473,1155780.0451890415
2,1, 1, 1, 0,10, 0.00,60.00,Holiday
11,216835530.32437409
47,77527906.68663386
71,8159506.686633975
346,69368399.9999999
993,72641339.99999988
1017,72641339.99999988
1497,556082526.8461381
1533,0.0
1557,0.0
2228,2545185.8191713008
2366,1343379.8551333626
4114,40613694.63834062
4126,16577407.952133377
4162,14199365.105798258
4210,23145720.65039547
4236,554739146.9910048
4348,0.0
4473,361682.529832946
2,1, 1, 1, 0,11, 0.00,60.00,Holiday
11,206749228.18812479
47,75757758.64254619
71,27838158.64254624
346,47919599.99999992
993,74424959.99999996
1017,74424959.99999996
1497,363466194.40676859
1533,0.0
1557,0.0
2228,5697430.355059743
2366,2026404.1036945494
4114,36572761.17218768
4126,16519577.605455207
4162,14199365.105798258
4210,14065166.74883838
4236,361439790.303074
4348,0.0
4473,231151.2694928519
2,1, 1, 1, 0,12, 0.00,60.00,Holiday
11,200090887.76018156
47,75855009.93615307
71,27935409.93615312
346,47919599.99999992
993,74424959.99999996
1017,74424959.99999996
1497,245523418.42095763
1533,11438885.168497468
1557,11438885.168497468
2228,5660987.374124693
2366,2056729.3890728087
4114,33150691.060994533
4126,16519577.605455207
4162,14199365.105798258
4210,10788752.63903581
4236,232027803.86338736
4348,0.0
4473,210486.74987358333
2,1, 1, 1, 0,13, 0.00,60.00,Holiday
11,222594085.74376125
47,85853695.37398972
71,37934095.373989749
346,47919599.99999992
993,89913239.99999997
1017,89913239.99999997
1497,100590803.87399425
1533,11438885.168497468
1557,11438885.168497468
2228,6591341.523483148
2366,2414377.194038999
4114,31147976.79264153
4126,16519577.605455207
4162,14199365.105798258
4210,8888909.044980539
4236,86737541.51145779
4348,0.0
4473,198923.00866639053
2,1, 1, 1, 0,14, 0.00,60.00,Holiday
11,222050152.0096637
47,86722633.49332768
71,38803033.493327688
346,47919599.99999992
993,89913239.99999997
1017,89913239.99999997
1497,32273924.35486416
1533,0.0
1557,0.0
2228,7246244.767886933
2366,2430740.7295981824
4114,30728387.25845638
4126,16519985.132813869
4162,14199365.105798258
4210,7241311.748087728
4236,29843183.62526598
4348,0.0
4473,198334.7419051082
2,1, 1, 1, 0,15, 0.00,60.00,Holiday
11,222925536.26469464
47,87653360.9771864
71,39733760.97718642
346,47919599.99999992
993,89913239.99999997
1017,89913239.99999997
1497,17525354.290592813
1533,0.0
1557,0.0
2228,6088843.044218455
2366,2089625.8553819163
4114,30719146.474932799
4126,16519781.369134538
4162,14199365.105798258
4210,6275903.689581703
4236,15435728.435210895
4348,2076441.890279612
4473,198600.18849577593
2,1, 1, 1, 0,16, 0.00,60.00,Holiday
11,224361971.54903419
47,88041263.01937317
71,40121663.01937319
346,47919599.99999992
993,89913239.99999997
1017,89913239.99999997
1497,15178907.732429643
1533,0.0
1557,0.0
2228,6374412.755965774
2366,2389751.707023346
4114,30718942.711253466
4126,16519577.605455207
4162,14199365.105798258
4210,6069302.760993864
4236,12789156.0254063
4348,3046143.146843829
4473,198667.1546041565
2,1, 1, 1, 0,17, 0.00,60.00,Holiday
11,225451927.60328496
47,89573286.60702279
71,41653686.607022818
346,47919599.99999992
993,89913239.99999997
1017,89913239.99999997
1497,42262272.335380259
1533,28597212.921243654
1557,28597212.921243654
2228,7087738.654693017
2366,2113603.99391137
4114,30718942.711253466
4126,16519577.605455207
4162,14199365.105798258
4210,6438373.306360357
4236,11551455.420225237
4348,1521648.7622025286
4473,198697.56175289484
2,1, 1, 1, 0,18, 0.00,60.00,Holiday
11,197320495.3206139
47,78647111.99999994
71,30727511.99999999
346,47919599.99999992
993,74424959.99999996
1017,74424959.99999996
1497,79489751.01452823
1533,28597212.921243654
1557,28597212.921243654
2228,6303860.434117662
2366,2377198.4581198
4114,30718942.711253466
4126,16519577.605455207
4162,14199365.105798258
4210,7027455.179839385
4236,48515339.63516478
4348,0.0
4473,198164.99540353733
2,1, 1, 1, 0,19, 0.00,60.00,Holiday
11,242514391.36050625
47,106749035.99999982
71,15931835.999999995
346,90817199.99999984
993,101834279.99999984
1017,101834279.99999984
1497,137534966.12922824
1533,28597212.921243654
1557,28597212.921243654
2228,5024718.5342360199
2366,1701698.024402544
4114,28686782.132279979
4126,14487417.026481722
4162,14199365.105798258
4210,19199.58928122202
4236,107236055.18358206
4348,0.0
4473,200375.10470927706
2,1, 1, 1, 0,20, 0.00,60.00,Holiday
11,270851084.15933278
47,124250678.9999998
71,4835078.999999999
346,119415599.9999998
993,118816469.99999982
1017,118816469.99999982
1497,2005658.985516924
1533,0.0
1557,0.0
2228,5126228.713922651
2366,2005658.985516924
4114,22657706.445410395
4126,8458341.339612136
4162,14199365.105798258
4210,0.0
4236,0.0
4348,0.0
4473,0.0
2,1, 1, 1, 0,21, 0.00,60.00,Holiday
11,297923315.5017556
47,138549878.9999998
71,4835078.999999999
346,133714799.99999979
993,133115669.99999979
1017,133115669.99999979
1497,1668059.3480852573
1533,0.0
1557,0.0
2228,3600060.056345504
2366,1668059.3480852573
4114,22657706.445410395
4126,8458341.339612136
4162,14199365.105798258
4210,0.0
4236,0.0
4348,0.0
4473,0.0
2,1, 1, 1, 0,22, 0.00,60.00,Holiday
11,269175483.82828727
47,124250678.9999998
71,4835078.999999999
346,119415599.9999998
993,118816469.99999982
1017,118816469.99999982
1497,1364836.9046519674
1533,0.0
1557,0.0
2228,3450628.382877138
2366,1364836.9046519674
4114,22657706.445410395
4126,8458341.339612136
4162,14199365.105798258
4210,0.0
4236,0.0
4348,0.0
4473,0.0
2,1, 1, 1, 0,23, 0.00,60.00,Holiday
11,210171197.74831967
47,95652278.99999984
71,4835078.999999999
346,90817199.99999984
993,90218069.99999985
1017,90218069.99999985
1497,1317991.2286159443
1533,0.0
1557,0.0
2228,1643142.3029095284
2366,1317991.2286159443
4114,22657706.445410395
4126,8458341.339612136
4162,14199365.105798258
4210,0.0
4236,0.0
4348,0.0
4473,0.0
2,1, 1, 1, 0,24, 0.00,60.00,Holiday
11,124325582.15366149
47,52754678.99999992
71,4835078.999999999
346,47919599.99999992
993,47320469.999999929
1017,47320469.999999929
1497,1035073.0413578126
1533,0.0
1557,0.0
2228,1592726.7082511634
2366,1035073.0413578126
4114,22657706.445410395
4126,8458341.339612136
4162,14199365.105798258
4210,0.0
4236,0.0
4348,0.0
4473,0.0
2,2, 1, 2, 0, 1, 0.00,60.00,Friday
11,66320419.00542647
47,24156278.99999996
71,4835078.999999999
346,19321199.999999968
993,18722069.99999997
1017,18722069.99999997
1497,1027744.0027764771
1533,0.0
1557,0.0
2228,784363.5600161282
2366,1027744.0027764771
4114,22657706.445410395
4126,8458341.339612136
4162,14199365.105798258
4210,0.0
4236,0.0
4348,0.0
4473,0.0
2,2, 1, 2, 0, 2, 0.00,60.00,Friday
11,66326324.99224441
47,24156278.99999996
71,4835078.999999999
346,19321199.999999968
993,18722069.99999997
1017,18722069.99999997
1497,1032490.6339592121
1533,0.0
1557,0.0
2228,790269.5468340678
2366,1032490.6339592121
4114,22657706.445410395
4126,8458341.339612136
4162,14199365.105798258
4210,0.0
4236,0.0
4348,0.0
4473,0.0
2,2, 1, 2, 0, 3, 0.00,60.00,Friday
11,66326273.70644288
47,24156278.99999996
71,4835078.999999999
346,19321199.999999968
993,18722069.99999997
1017,18722069.99999997
1497,1044196.6283639199
1533,0.0
1557,0.0
2228,790218.2610325391
2366,1044196.6283639199
4114,22657706.445410395
4126,8458341.339612136
4162,14199365.105798258
4210,0.0
4236,0.0
4348,0.0
4473,0.0
2,2, 1, 2, 0, 4, 0.00,60.00,Friday
11,66320411.867576848
47,24156278.99999996
71,4835078.999999999
346,19321199.999999968
993,18722069.99999997
1017,18722069.99999997
1497,1016321.1010800467
1533,0.0
1557,0.0
2228,784356.4221665091
2366,1016321.1010800467
4114,22657706.445410395
4126,8458341.339612136
4162,14199365.105798258
4210,0.0
4236,0.0
4348,0.0
4473,0.0
2,2, 1, 2, 0, 5, 0.00,60.00,Friday
11,66320418.54449206
47,24156278.99999996
71,4835078.999999999
346,19321199.999999968
993,18722069.99999997
1017,18722069.99999997
1497,1027860.1320364639
1533,0.0
1557,0.0
2228,784363.0990817172
2366,1027860.1320364639
4114,22657706.445410395
4126,8458341.339612136
4162,14199365.105798258
4210,0.0
4236,0.0
4348,0.0
4473,0.0
2,2, 1, 2, 0, 6, 0.00,60.00,Friday
11,137559653.92413885
47,53890838.99999992
71,5971238.999999999
346,47919599.99999992
993,47871269.999999929
1017,47871269.999999929
1497,1203463.8751247433
1533,0.0
1557,0.0
2228,784421.7425241545
2366,1203463.8751247433
4114,24689867.024383878
4126,10490501.918585619
4162,14199365.105798258
4210,10323256.157230858
4236,0.0
4348,0.0
4473,0.0
2,2, 1, 2, 0, 7, 0.00,60.00,Friday
11,207572155.6438156
47,80361638.99999988
71,5971238.999999999
346,74390399.99999988
993,69320069.9999999
1017,69320069.9999999
1497,558910749.7709473
1533,28597212.921243654
1557,28597212.921243654
2228,784366.7824479252
2366,1120355.5784813723
4114,46368917.07765711
4126,23563236.425702808
4162,14199365.105798258
4210,10028954.454833486
4236,529193181.27122238
4348,0.0
4473,708208.3288773109
2,2, 1, 2, 0, 8, 0.00,60.00,Friday
11,228188119.99438484
47,95977533.23177418
71,21587133.23177432
346,74390399.99999988
993,83139479.99999988
1017,83139479.99999988
1497,381968803.49956187
1533,28882321.086319496
1557,28882321.086319496
2228,3107374.120953356
2366,1672373.3864377314
4114,35762209.5175336
4126,16541432.303503277
4162,14199365.105798258
4210,9952221.145091275
4236,351414109.02680459
4348,0.0
4473,249301.97903253683
2,2, 1, 2, 0, 9, 0.00,60.00,Friday
11,288449974.09998348
47,125860367.00189926
71,51469967.001899387
346,74390399.99999988
993,112981499.99999987
1017,112981499.99999987
1497,267574803.84013484
1533,285108.16507584266
1557,285108.16507584266
2228,4004836.26160929
2366,2107879.5441918706
4114,35086069.4584242
4126,16519577.605455207
4162,14199365.105798258
4210,10308182.761415847
4236,265181816.13086713
4348,0.0
4473,209018.61663487752
2,2, 1, 2, 0,10, 0.00,60.00,Friday
11,347601510.61913958
47,151141923.8220826
71,76751523.82208266
346,74390399.99999988
993,143958059.99999995
1017,143958059.99999995
1497,224856242.8550229
1533,285108.16507584266
1557,285108.16507584266
2228,5977606.219326949
2366,2869404.7781368929
4114,35552311.870509419
4126,16564221.34567713
4162,14199365.105798258
4210,10769982.983471372
4236,221701729.9118102
4348,0.0
4473,201625.72374934084
2,2, 1, 2, 0,11, 0.00,60.00,Friday
11,308684506.00642457
47,129394751.99721805
71,76453151.99721805
346,52941599.9999999
993,122509259.99999996
1017,122509259.99999996
1497,273511974.09651979
1533,513194.69713651677
1557,513194.69713651677
2228,7920329.02610457
2366,3032432.1131602509
4114,37489763.50937632
4126,16608775.315011217
4162,14199365.105798258
4210,11167966.473576995
4236,269966347.286223
4348,0.0
4473,202435.0001486733
2,2, 1, 2, 0,12, 0.00,60.00,Friday
11,311441018.4851923
47,129177946.71103645
71,76236346.71103648
346,52941599.9999999
993,122509259.99999996
1017,122509259.99999996
1497,279225085.0306999
1533,11952079.865633984
1557,11952079.865633984
2228,11107496.63727368
2366,3816657.569596261
4114,37426464.61444203
4126,16846994.22508262
4162,14199365.105798258
4210,11017296.305421919
4236,263456347.59546966
4348,0.0
4473,202554.2170182998
2,2, 1, 2, 0,13, 0.00,60.00,Friday
11,310110029.01910486
47,128773252.1174432
71,75831652.11744322
346,52941599.9999999
993,122509259.99999996
1017,122509259.99999996
1497,236593191.68001179
1533,11952079.865633984
1557,11952079.865633984
2228,11595175.352999337
2366,4119979.1258168148
4114,36340954.59832602
4126,16912364.15815504
4162,14199365.105798258
4210,10690682.110314805
4236,220521132.68856103
4348,0.0
4473,200704.84002157537
2,2, 1, 2, 0,14, 0.00,60.00,Friday
11,305979656.6698859
47,128124654.22739439
71,75183054.2273944
346,52941599.9999999
993,122509259.99999996
1017,122509259.99999996
1497,189030614.91383893
1533,513194.69713651677
1557,513194.69713651677
2228,11062264.723749616
2366,4274453.101274436
4114,35244330.21381536
4126,16967956.122304623
4162,14199365.105798258
4210,8839476.08345738
4236,184242967.11542798
4348,0.0
4473,199671.42146925975
2,2, 1, 2, 0,15, 0.00,60.00,Friday
11,303253783.9425267
47,128440623.19704458
71,75499023.19704458
346,52941599.9999999
993,122509259.99999996
1017,122509259.99999996
1497,150327941.56899495
1533,427662.2476137639
1557,427662.2476137639
2228,9640028.865259761
2366,3243394.3321727586
4114,34484459.0497286
4126,17122738.750826066
4162,14199365.105798258
4210,7980637.005369802
4236,146656884.9892084
4348,0.0
4473,198775.8251240349
2,2, 1, 2, 0,16, 0.00,60.00,Friday
11,299952422.52504548
47,127362452.06459692
71,74420852.06459695
346,52941599.9999999
993,122509259.99999996
1017,122509259.99999996
1497,108601043.99626886
1533,427662.2476137639
1557,427662.2476137639
2228,8931754.359731105
2366,3057860.2437694047
4114,33611286.52992235
4126,17504354.361311206
4162,14199365.105798258
4210,7339365.522233291
4236,105115521.50488568
4348,0.0
4473,198304.04856199435
2,2, 1, 2, 0,17, 0.00,60.00,Friday
11,301586993.4476029
47,130202639.00150176
71,77261039.00150177
346,52941599.9999999
993,122509259.99999996
1017,122509259.99999996
1497,128998742.58637229
1533,29024875.168857416
1557,29024875.168857416
2228,8237559.707322493
2366,3521620.805425888
4114,33337917.508550608
4126,17487764.975283624
4162,14199365.105798258
4210,7101359.678664801
4236,96452246.61208898
4348,0.0
4473,198257.5515633843
2,2, 1, 2, 0,18, 0.00,60.00,Friday
11,294619088.2448497
47,123776342.99999996
71,70834742.99999997
346,52941599.9999999
993,118102859.99999997
1017,118102859.99999997
1497,145482465.02544765
1533,29024875.168857416
1557,29024875.168857416
2228,9309903.883642583
2366,3038327.595766935
4114,33494111.4555886
4126,17066691.957554707
4162,14199365.105798258
4210,9737552.32061363
4236,113419262.2608233
4348,0.0
4473,198317.58500503907
2,2, 1, 2, 0,19, 0.00,60.00,Friday
11,327858053.5047316
47,143344268.99999986
71,47505068.99999999
346,95839199.99999984
993,135564839.99999989
1017,135564839.99999989
1497,117541692.25459065
1533,28597212.921243654
1557,28597212.921243654
2228,7711575.120983939
2366,2867250.997897459
4114,31273485.257734345
4126,16699925.517378239
4162,14199365.105798258
4210,9765135.330788097
4236,86077228.33544952
4348,0.0
4473,198748.79522543466
2,2, 1, 2, 0,20, 0.00,60.00,Friday
11,382962722.2866016
47,171942668.99999974
71,47505068.99999999
346,124437599.9999998
993,164163239.99999974
1017,164163239.99999974
1497,79255397.60062674
1533,0.0
1557,0.0
2228,6089736.443876649
2366,2196430.9058301367
4114,30803492.335513925
4126,16561895.72160513
4162,14199365.105798258
4210,9764864.354195396
4236,77058966.69479659
4348,0.0
4473,198720.1530160873
2,2, 1, 2, 0,21, 0.00,60.00,Friday
11,397115339.44324687
47,180270629.9999997
71,41533829.999999988
346,138736799.9999998
993,169616699.99999974
1017,169616699.99999974
1497,81320298.30255595
1533,0.0
1557,0.0
2228,6527371.620382746
2366,2418953.1196965139
4114,30736523.724827086
4126,16519577.605455207
4162,14199365.105798258
4210,9765293.990153278
4236,78901345.18285945
4348,0.0
4473,198820.10788412943
2,2, 1, 2, 0,22, 0.00,60.00,Friday
11,314462431.57372358
47,143777915.9999998
71,19340315.999999998
346,124437599.9999998
993,132085079.9999998
1017,132085079.9999998
1497,2662877.0384270886
1533,0.0
1557,0.0
2228,4128251.550835712
2366,1982886.9665434808
4114,24719945.40220703
4126,10490501.918585619
4162,14199365.105798258
4210,9751238.620681115
4236,679990.0718836074
4348,0.0
4473,0.0
2,2, 1, 2, 0,23, 0.00,60.00,Friday
11,224523384.3323195
47,96788438.99999984
71,5971238.999999999
346,90817199.99999984
993,90768869.99999985
1017,90768869.99999985
1497,1339798.0228677048
1533,0.0
1557,0.0
2228,2524969.687254785
2366,1339798.0228677048
4114,24689867.024383878
4126,10490501.918585619
4162,14199365.105798258
4210,9751238.620681115
4236,0.0
4348,0.0
4473,0.0
2,2, 1, 2, 0,24, 0.00,60.00,Friday
11,136133745.62173755
47,52754678.99999992
71,4835078.999999999
346,47919599.99999992
993,47320469.999999929
1017,47320469.999999929
1497,1046738.0205303566
1533,0.0
1557,0.0
2228,1617490.9766725766
2366,1046738.0205303566
4114,24689867.024383878
4126,10490501.918585619
4162,14199365.105798258
4210,9751238.620681115
4236,0.0
4348,0.0
4473,0.0
2,3, 1, 3, 0, 1, 0.00,60.00,Saturday
11,68020719.70770504
47,24156278.99999996
71,4835078.999999999
346,19321199.999999968
993,18722069.99999997
1017,18722069.99999997
1497,1327113.9120370304
1533,0.0
1557,0.0
2228,2484664.262294697
2366,1327113.9120370304
4114,22657706.445410395
4126,8458341.339612136
4162,14199365.105798258
4210,0.0
4236,0.0
4348,0.0
4473,0.0
2,3, 1, 3, 0, 2, 0.00,60.00,Saturday
11,67179410.38834287
47,24156278.99999996
71,4835078.999999999
346,19321199.999999968
993,18722069.99999997
1017,18722069.99999997
1497,1320758.616583671
1533,0.0
1557,0.0
2228,1643354.9429325313
2366,1320758.616583671
4114,22657706.445410395
4126,8458341.339612136
4162,14199365.105798258
4210,0.0
4236,0.0
4348,0.0
4473,0.0
2,3, 1, 3, 0, 3, 0.00,60.00,Saturday
11,67153650.17316166
47,24156278.99999996
71,4835078.999999999
346,19321199.999999968
993,18722069.99999997
1017,18722069.99999997
1497,1046730.1667364428
1533,0.0
1557,0.0
2228,1617594.7277513149
2366,1046730.1667364428
4114,22657706.445410395
4126,8458341.339612136
4162,14199365.105798258
4210,0.0
4236,0.0
4348,0.0
4473,0.0
2,3, 1, 3, 0, 4, 0.00,60.00,Saturday
11,66383620.23172854
47,24156278.99999996
71,4835078.999999999
346,19321199.999999968
993,18722069.99999997
1017,18722069.99999997
1497,2454200.488613085
1533,0.0
1557,0.0
2228,796351.9583126503
2366,1296418.2027361298
4114,22708919.273415936
4126,8458341.339612136
4162,14199365.105798258
4210,0.0
4236,1157782.2858769554
4348,0.0
4473,0.0
2,3, 1, 3, 0, 5, 0.00,60.00,Saturday
11,67508783.17539767
47,24156278.99999996
71,4835078.999999999
346,19321199.999999968
993,18722069.99999997
1017,18722069.99999997
1497,9625667.208380875
1533,0.0
1557,0.0
2228,1592806.6420300538
2366,1036694.678448261
4114,23037627.533367665
4126,8458341.339612136
4162,14199365.105798258
4210,0.0
4236,8588972.529932613
4348,0.0
4473,0.0
2,3, 1, 3, 0, 6, 0.00,60.00,Saturday
11,147160434.21959285
47,52754678.99999992
71,4835078.999999999
346,47919599.99999992
993,47320469.999999929
1017,47320469.999999929
1497,12088577.521451083
1533,0.0
1557,0.0
2228,796359.859087876
2366,1043301.0806485078
4114,25178439.3264346
4126,10490501.918585619
4162,14199365.105798258
4210,21110486.034070415
4236,11045276.440802573
4348,0.0
4473,0.0
2,3, 1, 3, 0, 7, 0.00,60.00,Saturday
11,226940668.34094126
47,80361638.99999988
71,5971238.999999999
346,74390399.99999988
993,69320069.9999999
1017,69320069.9999999
1497,830901772.5915505
1533,28597212.921243654
1557,28597212.921243654
2228,1605157.5994881716
2366,1307658.4713634626
4114,54975288.572207648
4126,21183718.660468613
4162,14199365.105798258
4210,20037616.04001583
4236,800996901.1989434
4348,0.0
4473,640897.1292298058
2,3, 1, 3, 0, 8, 0.00,60.00,Saturday
11,214654563.647415
47,83689396.5292522
71,9298996.529252323
346,74390399.99999988
993,73192139.99999988
1017,73192139.99999988
1497,510539675.0154253
1533,28597212.921243654
1557,28597212.921243654
2228,3569816.3494505018
2366,1685241.6336591279
4114,39425075.9800568
4126,16519577.605455207
4162,14199365.105798258
4210,14500922.133844499
4236,480257220.46052256
4348,0.0
4473,277212.6548110957
2,3, 1, 3, 0, 9, 0.00,60.00,Saturday
11,243818370.1044654
47,101420714.63412495
71,27030314.634125096
346,74390399.99999988
993,90883619.99999987
1017,90883619.99999987
1497,311637596.22523298
1533,285108.16507584266
1557,285108.16507584266
2228,4622335.741133969
2366,2024247.7310559026
4114,34654101.802937339
4126,16519577.605455207
4162,14199365.105798258
4210,12012992.669192277
4236,309328240.3291012
4348,0.0
4473,224605.2570769599
2,3, 1, 3, 0,10, 0.00,60.00,Saturday
11,282225002.67302086
47,118144161.57096066
71,43753761.570960778
346,74390399.99999988
993,114116039.99999988
1017,114116039.99999988
1497,187788442.5239408
1533,285108.16507584266
1557,285108.16507584266
2228,5447682.289382266
2366,2084437.3728100849
4114,32867706.790303649
4126,16563723.666172468
4162,14199365.105798258
4210,11444386.456037557
4236,185418896.98605485
4348,0.0
4473,205025.5663367937
2,3, 1, 3, 0,11, 0.00,60.00,Saturday
11,284083720.07294979
47,116729003.71220626
71,63787403.71220629
346,52941599.9999999
993,115899659.99999997
1017,115899659.99999997
1497,146890482.90275885
1533,513194.69713651677
1557,513194.69713651677
2228,8004559.839297266
2366,2897546.1467024467
4114,32636632.400937179
4126,16672141.241165584
4162,14199365.105798258
4210,10613034.461740749
4236,143479742.05891986
4348,0.0
4473,200829.65876848228
2,3, 1, 3, 0,12, 0.00,60.00,Saturday
11,284955721.764607
47,116689395.46291931
71,63747795.46291933
346,52941599.9999999
993,115899659.99999997
1017,115899659.99999997
1497,116872385.21970874
1533,11952079.865633984
1557,11952079.865633984
2228,10102008.482685395
2366,3146306.7990140544
4114,32140887.443288696
4126,16944968.45199934
4162,14199365.105798258
4210,9874706.116932068
4236,101773998.55506072
4348,50058.20912404284
4473,199006.04965762687
2,3, 1, 3, 0,13, 0.00,60.00,Saturday
11,280662390.0942372
47,113400758.9089941
71,60459158.90899411
346,52941599.9999999
993,114247259.99999997
1017,114247259.99999997
1497,82183070.10785416
1533,11952079.865633984
1557,11952079.865633984
2228,10759361.148783531
2366,3578398.963321941
4114,31865677.68420489
4126,17021691.80712792
4162,14199365.105798258
4210,9169454.964423296
4236,66652591.27889824
4348,1021621.1041313005
4473,198256.2837002307
2,3, 1, 3, 0,14, 0.00,60.00,Saturday
11,282929628.44844487
47,113473118.25458104
71,60531518.25458105
346,52941599.9999999
993,114247259.99999997
1017,114247259.99999997
1497,33563568.696771409
1533,513194.69713651677
1557,513194.69713651677
2228,11344715.64578424
2366,3563934.946787807
4114,32339698.95364003
4126,17541820.415768554
4162,14199365.105798258
4210,8539651.438959131
4236,29486439.05284708
4348,2786854.1869393249
4473,198329.9685412866
2,3, 1, 3, 0,15, 0.00,60.00,Saturday
11,281649437.8186544
47,113057626.56421721
71,60116026.56421723
346,52941599.9999999
993,114247259.99999997
1017,114247259.99999997
1497,26036325.358752826
1533,427662.2476137639
1557,427662.2476137639
2228,9135986.660315596
2366,2940703.597609321
4114,32974509.618947694
4126,18085817.660946877
4162,14199365.105798258
4210,8678907.7018065
4236,22667959.51352974
4348,3356717.884106345
4473,198429.3892611356
2,3, 1, 3, 0,16, 0.00,60.00,Saturday
11,281290622.29060146
47,113358328.24261497
71,60416728.24261499
346,52941599.9999999
993,114247259.99999997
1017,114247259.99999997
1497,17617868.903015045
1533,427662.2476137639
1557,427662.2476137639
2228,9411991.660494676
2366,2728174.0007667376
4114,33065423.41096668
4126,18349816.97663939
4162,14199365.105798258
4210,8578919.785489683
4236,14462032.654634543
4348,2430039.630488776
4473,198659.5605467624
2,3, 1, 3, 0,17, 0.00,60.00,Saturday
11,282987326.84593638
47,117537902.28360252
71,64596302.28360254
346,52941599.9999999
993,114247259.99999997
1017,114247259.99999997
1497,55147591.43029635
1533,29024875.168857416
1557,29024875.168857416
2228,8742650.13427221
2366,2909178.4557384157
4114,32864846.930624524
4126,18486355.716459767
4162,14199365.105798258
4210,8927841.906911066
4236,23213537.805700523
4348,468357.918181
4473,198467.67234516756
2,3, 1, 3, 0,18, 0.00,60.00,Saturday
11,276050096.5064208
47,111937382.99999996
71,64017782.99999998
346,47919599.99999992
993,113145659.99999997
1017,113145659.99999997
1497,96005214.6383645
1533,28597212.921243654
1557,28597212.921243654
2228,8607208.684739577
2366,2877661.5959805108
4114,32384356.74027133
4126,17742839.383189478
4162,14199365.105798258
4210,9777274.609400029
4236,64530340.121140349
4348,0.0
4473,198213.47201000749
2,3, 1, 3, 0,19, 0.00,60.00,Saturday
11,303531497.11817088
47,128942549.99999987
71,38125349.999999988
346,90817199.99999984
993,125066699.99999988
1017,125066699.99999988
1497,127831928.09766355
1533,28597212.921243654
1557,28597212.921243654
2228,8148515.4623086
2366,2528501.942168766
4114,30808938.0434244
4126,16523180.298183091
4162,14199365.105798258
4210,10365066.6213251
4236,96706213.23425114
4348,0.0
4473,199726.9911129634
2,3, 1, 3, 0,20, 0.00,60.00,Saturday
11,316862328.185825
47,142745273.9999998
71,23329673.999999994
346,119415599.9999998
993,138176819.9999998
1017,138176819.9999998
1497,135671312.27464346
1533,0.0
1557,0.0
2228,6993782.359461275
2366,2419291.0395906369
4114,28718648.94759652
4126,14487417.026481722
4162,14199365.105798258
4210,23728.5145091729
4236,133252021.23505283
4348,0.0
4473,204074.36425832206
2,3, 1, 3, 0,21, 0.00,60.00,Saturday
11,344288781.4011642
47,157044473.99999977
71,23329673.999999994
346,133714799.99999979
993,152476019.99999977
1017,152476019.99999977
1497,170363711.8874384
1533,0.0
1557,0.0
2228,5804877.900634492
2366,2040148.3805368704
4114,28724139.778883064
4126,14487417.026481722
4162,14199365.105798258
4210,29985.51371791913
4236,168323563.5069015
4348,0.0
4473,209284.20792906107
2,3, 1, 3, 0,22, 0.00,60.00,Saturday
11,283289271.5983135
47,127949597.9999998
71,8533997.999999999
346,119415599.9999998
993,122688539.9999998
1017,122688539.9999998
1497,217285635.12520857
1533,0.0
1557,0.0
2228,3632433.0362918206
2366,1694726.9545423755
4114,28759704.738453688
4126,14487417.026481722