Program Version,EnergyPlus, Version 9.0.1-bb7ca4f0da, YMD=2019.12.17 16:58
1,5,Environment Title[],Latitude[deg],Longitude[deg],Time Zone[],Elevation[m]
2,8,Day of Simulation[],Month[],Day of Month[],DST Indicator[1=yes 0=no],Hour[],StartMinute[],EndMinute[],DayType
3,5,Cumulative Day of Simulation[],Month[],Day of Month[],DST Indicator[1=yes 0=no],DayType  ! When Daily Report Variables Requested
4,2,Cumulative Days of Simulation[],Month[]  ! When Monthly Report Variables Requested
5,1,Cumulative Days of Simulation[] ! When Run Period Report Variables Requested
6,1,Calendar Year of Simulation[] ! When Annual Report Variables Requested
7,1,Environment,Site Outdoor Air Drybulb Temperature [C] !TimeStep
4438,1,BASE BLR,Boiler Heating Rate [W] !Hourly
End of Data Dictionary
1,ARCATA-AIRPORT ANN CLG 0.4% CONDNS DB=>MCWB,  40.98,-124.10,  -8.00,  62.00
2,1, 8,21, 0, 1, 0.00,15.00,SummerDesignDay
7,17.4075
2,1, 8,21, 0, 1,15.00,30.00,SummerDesignDay
7,17.325
2,1, 8,21, 0, 1,30.00,45.00,SummerDesignDay
7,17.2425
2,1, 8,21, 0, 1,45.00,60.00,SummerDesignDay
7,17.16
2,1, 8,21, 0, 1, 0.00,60.00,SummerDesignDay
4438,0.0
2,1, 8,21, 0, 2, 0.00,15.00,SummerDesignDay
7,17.105
2,1, 8,21, 0, 2,15.00,30.00,SummerDesignDay
7,17.05
2,1, 8,21, 0, 2,30.00,45.00,SummerDesignDay
7,16.995
2,1, 8,21, 0, 2,45.00,60.00,SummerDesignDay
7,16.939999999999999
2,1, 8,21, 0, 2, 0.00,60.00,SummerDesignDay
4438,0.0
2,1, 8,21, 0, 3, 0.00,15.00,SummerDesignDay
7,16.89875
2,1, 8,21, 0, 3,15.00,30.00,SummerDesignDay
7,16.8575
2,1, 8,21, 0, 3,30.00,45.00,SummerDesignDay
7,16.81625
2,1, 8,21, 0, 3,45.00,60.00,SummerDesignDay
7,16.775
2,1, 8,21, 0, 3, 0.00,60.00,SummerDesignDay
4438,0.0
2,1, 8,21, 0, 4, 0.00,15.00,SummerDesignDay
7,16.73375
2,1, 8,21, 0, 4,15.00,30.00,SummerDesignDay
7,16.6925
2,1, 8,21, 0, 4,30.00,45.00,SummerDesignDay
7,16.65125
2,1, 8,21, 0, 4,45.00,60.00,SummerDesignDay
7,16.61
2,1, 8,21, 0, 4, 0.00,60.00,SummerDesignDay
4438,0.0
2,1, 8,21, 0, 5, 0.00,15.00,SummerDesignDay
7,16.5825
2,1, 8,21, 0, 5,15.00,30.00,SummerDesignDay
7,16.555
2,1, 8,21, 0, 5,30.00,45.00,SummerDesignDay
7,16.5275
2,1, 8,21, 0, 5,45.00,60.00,SummerDesignDay
7,16.5
2,1, 8,21, 0, 5, 0.00,60.00,SummerDesignDay
4438,0.0
2,1, 8,21, 0, 6, 0.00,15.00,SummerDesignDay
7,16.5275
2,1, 8,21, 0, 6,15.00,30.00,SummerDesignDay
7,16.555
2,1, 8,21, 0, 6,30.00,45.00,SummerDesignDay
7,16.5825
2,1, 8,21, 0, 6,45.00,60.00,SummerDesignDay
7,16.61
2,1, 8,21, 0, 6, 0.00,60.00,SummerDesignDay
4438,0.0
2,1, 8,21, 0, 7, 0.00,15.00,SummerDesignDay
7,16.70625
2,1, 8,21, 0, 7,15.00,30.00,SummerDesignDay
7,16.8025
2,1, 8,21, 0, 7,30.00,45.00,SummerDesignDay
7,16.89875
2,1, 8,21, 0, 7,45.00,60.00,SummerDesignDay
7,16.995
2,1, 8,21, 0, 7, 0.00,60.00,SummerDesignDay
4438,149.30465774186664
2,1, 8,21, 0, 8, 0.00,15.00,SummerDesignDay
7,17.22875
2,1, 8,21, 0, 8,15.00,30.00,SummerDesignDay
7,17.4625
2,1, 8,21, 0, 8,30.00,45.00,SummerDesignDay
7,17.69625
2,1, 8,21, 0, 8,45.00,60.00,SummerDesignDay
7,17.93
2,1, 8,21, 0, 8, 0.00,60.00,SummerDesignDay
4438,0.0
2,1, 8,21, 0, 9, 0.00,15.00,SummerDesignDay
7,18.19125
2,1, 8,21, 0, 9,15.00,30.00,SummerDesignDay
7,18.4525
2,1, 8,21, 0, 9,30.00,45.00,SummerDesignDay
7,18.71375
2,1, 8,21, 0, 9,45.00,60.00,SummerDesignDay
7,18.975
2,1, 8,21, 0, 9, 0.00,60.00,SummerDesignDay
4438,0.0
2,1, 8,21, 0,10, 0.00,15.00,SummerDesignDay
7,19.20875
2,1, 8,21, 0,10,15.00,30.00,SummerDesignDay
7,19.4425
2,1, 8,21, 0,10,30.00,45.00,SummerDesignDay
7,19.67625
2,1, 8,21, 0,10,45.00,60.00,SummerDesignDay
7,19.91
2,1, 8,21, 0,10, 0.00,60.00,SummerDesignDay
4438,0.0
2,1, 8,21, 0,11, 0.00,15.00,SummerDesignDay
7,20.11625
2,1, 8,21, 0,11,15.00,30.00,SummerDesignDay
7,20.3225
2,1, 8,21, 0,11,30.00,45.00,SummerDesignDay
7,20.52875
2,1, 8,21, 0,11,45.00,60.00,SummerDesignDay
7,20.735
2,1, 8,21, 0,11, 0.00,60.00,SummerDesignDay
4438,0.0
2,1, 8,21, 0,12, 0.00,15.00,SummerDesignDay
7,20.8725
2,1, 8,21, 0,12,15.00,30.00,SummerDesignDay
7,21.01
2,1, 8,21, 0,12,30.00,45.00,SummerDesignDay
7,21.1475
2,1, 8,21, 0,12,45.00,60.00,SummerDesignDay
7,21.285
2,1, 8,21, 0,12, 0.00,60.00,SummerDesignDay
4438,0.0
2,1, 8,21, 0,13, 0.00,15.00,SummerDesignDay
7,21.395
2,1, 8,21, 0,13,15.00,30.00,SummerDesignDay
7,21.505
2,1, 8,21, 0,13,30.00,45.00,SummerDesignDay
7,21.615
2,1, 8,21, 0,13,45.00,60.00,SummerDesignDay
7,21.725
2,1, 8,21, 0,13, 0.00,60.00,SummerDesignDay
4438,0.0
2,1, 8,21, 0,14, 0.00,15.00,SummerDesignDay
7,21.79375
2,1, 8,21, 0,14,15.00,30.00,SummerDesignDay
7,21.8625
2,1, 8,21, 0,14,30.00,45.00,SummerDesignDay
7,21.93125
2,1, 8,21, 0,14,45.00,60.00,SummerDesignDay
7,22.0
2,1, 8,21, 0,14, 0.00,60.00,SummerDesignDay
4438,27.745149262029778
2,1, 8,21, 0,15, 0.00,15.00,SummerDesignDay
7,22.0
2,1, 8,21, 0,15,15.00,30.00,SummerDesignDay
7,22.0
2,1, 8,21, 0,15,30.00,45.00,SummerDesignDay
7,22.0
2,1, 8,21, 0,15,45.00,60.00,SummerDesignDay
7,22.0
2,1, 8,21, 0,15, 0.00,60.00,SummerDesignDay
4438,49.90675902189352
2,1, 8,21, 0,16, 0.00,15.00,SummerDesignDay
7,21.9175
2,1, 8,21, 0,16,15.00,30.00,SummerDesignDay
7,21.835
2,1, 8,21, 0,16,30.00,45.00,SummerDesignDay
7,21.7525
2,1, 8,21, 0,16,45.00,60.00,SummerDesignDay
7,21.67
2,1, 8,21, 0,16, 0.00,60.00,SummerDesignDay
4438,63.127702063239848
2,1, 8,21, 0,17, 0.00,15.00,SummerDesignDay
7,21.56
2,1, 8,21, 0,17,15.00,30.00,SummerDesignDay
7,21.45
2,1, 8,21, 0,17,30.00,45.00,SummerDesignDay
7,21.34
2,1, 8,21, 0,17,45.00,60.00,SummerDesignDay
7,21.23
2,1, 8,21, 0,17, 0.00,60.00,SummerDesignDay
4438,78.57226501548183
2,1, 8,21, 0,18, 0.00,15.00,SummerDesignDay
7,21.0925
2,1, 8,21, 0,18,15.00,30.00,SummerDesignDay
7,20.955
2,1, 8,21, 0,18,30.00,45.00,SummerDesignDay
7,20.8175
2,1, 8,21, 0,18,45.00,60.00,SummerDesignDay
7,20.68
2,1, 8,21, 0,18, 0.00,60.00,SummerDesignDay
4438,96.81804968902239
2,1, 8,21, 0,19, 0.00,15.00,SummerDesignDay
7,20.47375
2,1, 8,21, 0,19,15.00,30.00,SummerDesignDay
7,20.2675
2,1, 8,21, 0,19,30.00,45.00,SummerDesignDay
7,20.06125
2,1, 8,21, 0,19,45.00,60.00,SummerDesignDay
7,19.855
2,1, 8,21, 0,19, 0.00,60.00,SummerDesignDay
4438,122.16101493104422
2,1, 8,21, 0,20, 0.00,15.00,SummerDesignDay
7,19.70375
2,1, 8,21, 0,20,15.00,30.00,SummerDesignDay
7,19.5525
2,1, 8,21, 0,20,30.00,45.00,SummerDesignDay
7,19.40125
2,1, 8,21, 0,20,45.00,60.00,SummerDesignDay
7,19.25
2,1, 8,21, 0,20, 0.00,60.00,SummerDesignDay
4438,150.70686651632858
2,1, 8,21, 0,21, 0.00,15.00,SummerDesignDay
7,19.12625
2,1, 8,21, 0,21,15.00,30.00,SummerDesignDay
7,19.0025
2,1, 8,21, 0,21,30.00,45.00,SummerDesignDay
7,18.87875
2,1, 8,21, 0,21,45.00,60.00,SummerDesignDay
7,18.755
2,1, 8,21, 0,21, 0.00,60.00,SummerDesignDay
4438,174.9262570535618
2,1, 8,21, 0,22, 0.00,15.00,SummerDesignDay
7,18.63125
2,1, 8,21, 0,22,15.00,30.00,SummerDesignDay
7,18.5075
2,1, 8,21, 0,22,30.00,45.00,SummerDesignDay
7,18.38375
2,1, 8,21, 0,22,45.00,60.00,SummerDesignDay
7,18.259999999999999
2,1, 8,21, 0,22, 0.00,60.00,SummerDesignDay
4438,0.0
2,1, 8,21, 0,23, 0.00,15.00,SummerDesignDay
7,18.16375
2,1, 8,21, 0,23,15.00,30.00,SummerDesignDay
7,18.0675
2,1, 8,21, 0,23,30.00,45.00,SummerDesignDay
7,17.971249999999999
2,1, 8,21, 0,23,45.00,60.00,SummerDesignDay
7,17.875
2,1, 8,21, 0,23, 0.00,60.00,SummerDesignDay
4438,0.0
2,1, 8,21, 0,24, 0.00,15.00,SummerDesignDay
7,17.778750000000004
2,1, 8,21, 0,24,15.00,30.00,SummerDesignDay
7,17.6825
2,1, 8,21, 0,24,30.00,45.00,SummerDesignDay
7,17.58625
2,1, 8,21, 0,24,45.00,60.00,SummerDesignDay
7,17.490000000000003
2,1, 8,21, 0,24, 0.00,60.00,SummerDesignDay
4438,0.0
1,ARCATA-AIRPORT ANN CLG 0.4% CONDNS DP=>MCDB,  40.98,-124.10,  -8.00,  62.00
2,1, 8,21, 0, 1, 0.00,15.00,SummerDesignDay
7,13.207500000000002
2,1, 8,21, 0, 1,15.00,30.00,SummerDesignDay
7,13.125
2,1, 8,21, 0, 1,30.00,45.00,SummerDesignDay
7,13.0425
2,1, 8,21, 0, 1,45.00,60.00,SummerDesignDay
7,12.96
2,1, 8,21, 0, 1, 0.00,60.00,SummerDesignDay
4438,0.0
2,1, 8,21, 0, 2, 0.00,15.00,SummerDesignDay
7,12.905000000000002
2,1, 8,21, 0, 2,15.00,30.00,SummerDesignDay
7,12.850000000000002
2,1, 8,21, 0, 2,30.00,45.00,SummerDesignDay
7,12.795000000000002
2,1, 8,21, 0, 2,45.00,60.00,SummerDesignDay
7,12.74
2,1, 8,21, 0, 2, 0.00,60.00,SummerDesignDay
4438,0.0
2,1, 8,21, 0, 3, 0.00,15.00,SummerDesignDay
7,12.69875
2,1, 8,21, 0, 3,15.00,30.00,SummerDesignDay
7,12.6575
2,1, 8,21, 0, 3,30.00,45.00,SummerDesignDay
7,12.61625
2,1, 8,21, 0, 3,45.00,60.00,SummerDesignDay
7,12.575000000000001
2,1, 8,21, 0, 3, 0.00,60.00,SummerDesignDay
4438,164.22738488244119
2,1, 8,21, 0, 4, 0.00,15.00,SummerDesignDay
7,12.533750000000002
2,1, 8,21, 0, 4,15.00,30.00,SummerDesignDay
7,12.4925
2,1, 8,21, 0, 4,30.00,45.00,SummerDesignDay
7,12.451250000000002
2,1, 8,21, 0, 4,45.00,60.00,SummerDesignDay
7,12.41
2,1, 8,21, 0, 4, 0.00,60.00,SummerDesignDay
4438,803.7083666680367
2,1, 8,21, 0, 5, 0.00,15.00,SummerDesignDay
7,12.3825
2,1, 8,21, 0, 5,15.00,30.00,SummerDesignDay
7,12.355
2,1, 8,21, 0, 5,30.00,45.00,SummerDesignDay
7,12.3275
2,1, 8,21, 0, 5,45.00,60.00,SummerDesignDay
7,12.3
2,1, 8,21, 0, 5, 0.00,60.00,SummerDesignDay
4438,1366.4298488137366
2,1, 8,21, 0, 6, 0.00,15.00,SummerDesignDay
7,12.3275
2,1, 8,21, 0, 6,15.00,30.00,SummerDesignDay
7,12.355
2,1, 8,21, 0, 6,30.00,45.00,SummerDesignDay
7,12.3825
2,1, 8,21, 0, 6,45.00,60.00,SummerDesignDay
7,12.41
2,1, 8,21, 0, 6, 0.00,60.00,SummerDesignDay
4438,1125.9502853271534
2,1, 8,21, 0, 7, 0.00,15.00,SummerDesignDay
7,12.506250000000002
2,1, 8,21, 0, 7,15.00,30.00,SummerDesignDay
7,12.6025
2,1, 8,21, 0, 7,30.00,45.00,SummerDesignDay
7,12.69875
2,1, 8,21, 0, 7,45.00,60.00,SummerDesignDay
7,12.795000000000002
2,1, 8,21, 0, 7, 0.00,60.00,SummerDesignDay
4438,582.5516514825897
2,1, 8,21, 0, 8, 0.00,15.00,SummerDesignDay
7,13.028750000000003
2,1, 8,21, 0, 8,15.00,30.00,SummerDesignDay
7,13.262500000000001
2,1, 8,21, 0, 8,30.00,45.00,SummerDesignDay
7,13.49625
2,1, 8,21, 0, 8,45.00,60.00,SummerDesignDay
7,13.73
2,1, 8,21, 0, 8, 0.00,60.00,SummerDesignDay
4438,42.00841068561727
2,1, 8,21, 0, 9, 0.00,15.00,SummerDesignDay
7,13.99125
2,1, 8,21, 0, 9,15.00,30.00,SummerDesignDay
7,14.252500000000002
2,1, 8,21, 0, 9,30.00,45.00,SummerDesignDay
7,14.51375
2,1, 8,21, 0, 9,45.00,60.00,SummerDesignDay
7,14.775
2,1, 8,21, 0, 9, 0.00,60.00,SummerDesignDay
4438,0.0
2,1, 8,21, 0,10, 0.00,15.00,SummerDesignDay
7,15.008750000000001
2,1, 8,21, 0,10,15.00,30.00,SummerDesignDay
7,15.2425
2,1, 8,21, 0,10,30.00,45.00,SummerDesignDay
7,15.47625
2,1, 8,21, 0,10,45.00,60.00,SummerDesignDay
7,15.71
2,1, 8,21, 0,10, 0.00,60.00,SummerDesignDay
4438,0.0
2,1, 8,21, 0,11, 0.00,15.00,SummerDesignDay
7,15.916250000000002
2,1, 8,21, 0,11,15.00,30.00,SummerDesignDay
7,16.122500000000004
2,1, 8,21, 0,11,30.00,45.00,SummerDesignDay
7,16.32875
2,1, 8,21, 0,11,45.00,60.00,SummerDesignDay
7,16.535
2,1, 8,21, 0,11, 0.00,60.00,SummerDesignDay
4438,0.0
2,1, 8,21, 0,12, 0.00,15.00,SummerDesignDay
7,16.6725
2,1, 8,21, 0,12,15.00,30.00,SummerDesignDay
7,16.810000000000004
2,1, 8,21, 0,12,30.00,45.00,SummerDesignDay
7,16.9475
2,1, 8,21, 0,12,45.00,60.00,SummerDesignDay
7,17.085
2,1, 8,21, 0,12, 0.00,60.00,SummerDesignDay
4438,5.668790310487983
2,1, 8,21, 0,13, 0.00,15.00,SummerDesignDay
7,17.195
2,1, 8,21, 0,13,15.00,30.00,SummerDesignDay
7,17.305
2,1, 8,21, 0,13,30.00,45.00,SummerDesignDay
7,17.415
2,1, 8,21, 0,13,45.00,60.00,SummerDesignDay
7,17.525000000000003
2,1, 8,21, 0,13, 0.00,60.00,SummerDesignDay
4438,82.01676893043597
2,1, 8,21, 0,14, 0.00,15.00,SummerDesignDay
7,17.59375
2,1, 8,21, 0,14,15.00,30.00,SummerDesignDay
7,17.6625
2,1, 8,21, 0,14,30.00,45.00,SummerDesignDay
7,17.73125
2,1, 8,21, 0,14,45.00,60.00,SummerDesignDay
7,17.8
2,1, 8,21, 0,14, 0.00,60.00,SummerDesignDay
4438,152.70745386529664
2,1, 8,21, 0,15, 0.00,15.00,SummerDesignDay
7,17.8
2,1, 8,21, 0,15,15.00,30.00,SummerDesignDay
7,17.8
2,1, 8,21, 0,15,30.00,45.00,SummerDesignDay
7,17.8
2,1, 8,21, 0,15,45.00,60.00,SummerDesignDay
7,17.8
2,1, 8,21, 0,15, 0.00,60.00,SummerDesignDay
4438,189.6658063084599
2,1, 8,21, 0,16, 0.00,15.00,SummerDesignDay
7,17.7175
2,1, 8,21, 0,16,15.00,30.00,SummerDesignDay
7,17.635
2,1, 8,21, 0,16,30.00,45.00,SummerDesignDay
7,17.552500000000003
2,1, 8,21, 0,16,45.00,60.00,SummerDesignDay
7,17.470000000000004
2,1, 8,21, 0,16, 0.00,60.00,SummerDesignDay
4438,213.07251845421804
2,1, 8,21, 0,17, 0.00,15.00,SummerDesignDay
7,17.36
2,1, 8,21, 0,17,15.00,30.00,SummerDesignDay
7,17.25
2,1, 8,21, 0,17,30.00,45.00,SummerDesignDay
7,17.14
2,1, 8,21, 0,17,45.00,60.00,SummerDesignDay
7,17.03
2,1, 8,21, 0,17, 0.00,60.00,SummerDesignDay
4438,240.19394561140147
2,1, 8,21, 0,18, 0.00,15.00,SummerDesignDay
7,16.892500000000003
2,1, 8,21, 0,18,15.00,30.00,SummerDesignDay
7,16.755000000000004
2,1, 8,21, 0,18,30.00,45.00,SummerDesignDay
7,16.6175
2,1, 8,21, 0,18,45.00,60.00,SummerDesignDay
7,16.48
2,1, 8,21, 0,18, 0.00,60.00,SummerDesignDay
4438,270.55996055118228
2,1, 8,21, 0,19, 0.00,15.00,SummerDesignDay
7,16.27375
2,1, 8,21, 0,19,15.00,30.00,SummerDesignDay
7,16.067500000000004
2,1, 8,21, 0,19,30.00,45.00,SummerDesignDay
7,15.86125
2,1, 8,21, 0,19,45.00,60.00,SummerDesignDay
7,15.655000000000002
2,1, 8,21, 0,19, 0.00,60.00,SummerDesignDay
4438,311.7312502251581
2,1, 8,21, 0,20, 0.00,15.00,SummerDesignDay
7,15.50375
2,1, 8,21, 0,20,15.00,30.00,SummerDesignDay
7,15.352500000000001
2,1, 8,21, 0,20,30.00,45.00,SummerDesignDay
7,15.20125
2,1, 8,21, 0,20,45.00,60.00,SummerDesignDay
7,15.05
2,1, 8,21, 0,20, 0.00,60.00,SummerDesignDay
4438,360.40014952532007
2,1, 8,21, 0,21, 0.00,15.00,SummerDesignDay
7,14.926250000000002
2,1, 8,21, 0,21,15.00,30.00,SummerDesignDay
7,14.802500000000002
2,1, 8,21, 0,21,30.00,45.00,SummerDesignDay
7,14.67875
2,1, 8,21, 0,21,45.00,60.00,SummerDesignDay
7,14.555000000000002
2,1, 8,21, 0,21, 0.00,60.00,SummerDesignDay
4438,400.1455732715283
2,1, 8,21, 0,22, 0.00,15.00,SummerDesignDay
7,14.43125
2,1, 8,21, 0,22,15.00,30.00,SummerDesignDay
7,14.307500000000001
2,1, 8,21, 0,22,30.00,45.00,SummerDesignDay
7,14.18375
2,1, 8,21, 0,22,45.00,60.00,SummerDesignDay
7,14.06
2,1, 8,21, 0,22, 0.00,60.00,SummerDesignDay
4438,0.0
2,1, 8,21, 0,23, 0.00,15.00,SummerDesignDay
7,13.963750000000001
2,1, 8,21, 0,23,15.00,30.00,SummerDesignDay
7,13.8675
2,1, 8,21, 0,23,30.00,45.00,SummerDesignDay
7,13.77125
2,1, 8,21, 0,23,45.00,60.00,SummerDesignDay
7,13.675
2,1, 8,21, 0,23, 0.00,60.00,SummerDesignDay
4438,0.0
2,1, 8,21, 0,24, 0.00,15.00,SummerDesignDay
7,13.578750000000002
2,1, 8,21, 0,24,15.00,30.00,SummerDesignDay
7,13.482500000000002
2,1, 8,21, 0,24,30.00,45.00,SummerDesignDay
7,13.38625
2,1, 8,21, 0,24,45.00,60.00,SummerDesignDay
7,13.290000000000001
2,1, 8,21, 0,24, 0.00,60.00,SummerDesignDay
4438,0.0
1,ARCATA-AIRPORT ANN HTG 99.6% CONDNS DB,  40.98,-124.10,  -8.00,  62.00
2,1, 1,21, 0, 1, 0.00,15.00,WinterDesignDay
7,-0.1
2,1, 1,21, 0, 1,15.00,30.00,WinterDesignDay
7,-0.1
2,1, 1,21, 0, 1,30.00,45.00,WinterDesignDay
7,-0.1
2,1, 1,21, 0, 1,45.00,60.00,WinterDesignDay
7,-0.1
2,1, 1,21, 0, 1, 0.00,60.00,WinterDesignDay
4438,65618.42221077354
2,1, 1,21, 0, 2, 0.00,15.00,WinterDesignDay
7,-0.1
2,1, 1,21, 0, 2,15.00,30.00,WinterDesignDay
7,-0.1
2,1, 1,21, 0, 2,30.00,45.00,WinterDesignDay
7,-0.1
2,1, 1,21, 0, 2,45.00,60.00,WinterDesignDay
7,-0.1
2,1, 1,21, 0, 2, 0.00,60.00,WinterDesignDay
4438,67692.32268310958
2,1, 1,21, 0, 3, 0.00,15.00,WinterDesignDay
7,-0.1
2,1, 1,21, 0, 3,15.00,30.00,WinterDesignDay
7,-0.1
2,1, 1,21, 0, 3,30.00,45.00,WinterDesignDay
7,-0.1
2,1, 1,21, 0, 3,45.00,60.00,WinterDesignDay
7,-0.1
2,1, 1,21, 0, 3, 0.00,60.00,WinterDesignDay
4438,70148.76369658218
2,1, 1,21, 0, 4, 0.00,15.00,WinterDesignDay
7,-0.1
2,1, 1,21, 0, 4,15.00,30.00,WinterDesignDay
7,-0.1
2,1, 1,21, 0, 4,30.00,45.00,WinterDesignDay
7,-0.1
2,1, 1,21, 0, 4,45.00,60.00,WinterDesignDay
7,-0.1
2,1, 1,21, 0, 4, 0.00,60.00,WinterDesignDay
4438,74403.85149595783
2,1, 1,21, 0, 5, 0.00,15.00,WinterDesignDay
7,-0.1
2,1, 1,21, 0, 5,15.00,30.00,WinterDesignDay
7,-0.1
2,1, 1,21, 0, 5,30.00,45.00,WinterDesignDay
7,-0.1
2,1, 1,21, 0, 5,45.00,60.00,WinterDesignDay
7,-0.1
2,1, 1,21, 0, 5, 0.00,60.00,WinterDesignDay
4438,77706.4519123676
2,1, 1,21, 0, 6, 0.00,15.00,WinterDesignDay
7,-0.1
2,1, 1,21, 0, 6,15.00,30.00,WinterDesignDay
7,-0.1
2,1, 1,21, 0, 6,30.00,45.00,WinterDesignDay
7,-0.1
2,1, 1,21, 0, 6,45.00,60.00,WinterDesignDay
7,-0.1
2,1, 1,21, 0, 6, 0.00,60.00,WinterDesignDay
4438,121812.92311934098
2,1, 1,21, 0, 7, 0.00,15.00,WinterDesignDay
7,-0.1
2,1, 1,21, 0, 7,15.00,30.00,WinterDesignDay
7,-0.1
2,1, 1,21, 0, 7,30.00,45.00,WinterDesignDay
7,-0.1
2,1, 1,21, 0, 7,45.00,60.00,WinterDesignDay
7,-0.1
2,1, 1,21, 0, 7, 0.00,60.00,WinterDesignDay
4438,184837.21642179864
2,1, 1,21, 0, 8, 0.00,15.00,WinterDesignDay
7,-0.1
2,1, 1,21, 0, 8,15.00,30.00,WinterDesignDay
7,-0.1
2,1, 1,21, 0, 8,30.00,45.00,WinterDesignDay
7,-0.1
2,1, 1,21, 0, 8,45.00,60.00,WinterDesignDay
7,-0.1
2,1, 1,21, 0, 8, 0.00,60.00,WinterDesignDay
4438,147850.40560802516
2,1, 1,21, 0, 9, 0.00,15.00,WinterDesignDay
7,-0.1
2,1, 1,21, 0, 9,15.00,30.00,WinterDesignDay
7,-0.1
2,1, 1,21, 0, 9,30.00,45.00,WinterDesignDay
7,-0.1
2,1, 1,21, 0, 9,45.00,60.00,WinterDesignDay
7,-0.1
2,1, 1,21, 0, 9, 0.00,60.00,WinterDesignDay
4438,135964.33077259325
2,1, 1,21, 0,10, 0.00,15.00,WinterDesignDay
7,-0.1
2,1, 1,21, 0,10,15.00,30.00,WinterDesignDay
7,-0.1
2,1, 1,21, 0,10,30.00,45.00,WinterDesignDay
7,-0.1
2,1, 1,21, 0,10,45.00,60.00,WinterDesignDay
7,-0.1
2,1, 1,21, 0,10, 0.00,60.00,WinterDesignDay
4438,130033.43788990419
2,1, 1,21, 0,11, 0.00,15.00,WinterDesignDay
7,-0.1
2,1, 1,21, 0,11,15.00,30.00,WinterDesignDay
7,-0.1
2,1, 1,21, 0,11,30.00,45.00,WinterDesignDay
7,-0.1
2,1, 1,21, 0,11,45.00,60.00,WinterDesignDay
7,-0.1
2,1, 1,21, 0,11, 0.00,60.00,WinterDesignDay
4438,126526.2282670794
2,1, 1,21, 0,12, 0.00,15.00,WinterDesignDay
7,-0.1
2,1, 1,21, 0,12,15.00,30.00,WinterDesignDay
7,-0.1
2,1, 1,21, 0,12,30.00,45.00,WinterDesignDay
7,-0.1
2,1, 1,21, 0,12,45.00,60.00,WinterDesignDay
7,-0.1
2,1, 1,21, 0,12, 0.00,60.00,WinterDesignDay
4438,124257.82607550815
2,1, 1,21, 0,13, 0.00,15.00,WinterDesignDay
7,-0.1
2,1, 1,21, 0,13,15.00,30.00,WinterDesignDay
7,-0.1
2,1, 1,21, 0,13,30.00,45.00,WinterDesignDay
7,-0.1
2,1, 1,21, 0,13,45.00,60.00,WinterDesignDay
7,-0.1
2,1, 1,21, 0,13, 0.00,60.00,WinterDesignDay
4438,122720.291201462
2,1, 1,21, 0,14, 0.00,15.00,WinterDesignDay
7,-0.1
2,1, 1,21, 0,14,15.00,30.00,WinterDesignDay
7,-0.1
2,1, 1,21, 0,14,30.00,45.00,WinterDesignDay
7,-0.1
2,1, 1,21, 0,14,45.00,60.00,WinterDesignDay
7,-0.1
2,1, 1,21, 0,14, 0.00,60.00,WinterDesignDay
4438,121573.72041960224
2,1, 1,21, 0,15, 0.00,15.00,WinterDesignDay
7,-0.1
2,1, 1,21, 0,15,15.00,30.00,WinterDesignDay
7,-0.1
2,1, 1,21, 0,15,30.00,45.00,WinterDesignDay
7,-0.1
2,1, 1,21, 0,15,45.00,60.00,WinterDesignDay
7,-0.1
2,1, 1,21, 0,15, 0.00,60.00,WinterDesignDay
4438,120777.50304146619
2,1, 1,21, 0,16, 0.00,15.00,WinterDesignDay
7,-0.1
2,1, 1,21, 0,16,15.00,30.00,WinterDesignDay
7,-0.1
2,1, 1,21, 0,16,30.00,45.00,WinterDesignDay
7,-0.1
2,1, 1,21, 0,16,45.00,60.00,WinterDesignDay
7,-0.1
2,1, 1,21, 0,16, 0.00,60.00,WinterDesignDay
4438,120156.19099081237
2,1, 1,21, 0,17, 0.00,15.00,WinterDesignDay
7,-0.1
2,1, 1,21, 0,17,15.00,30.00,WinterDesignDay
7,-0.1
2,1, 1,21, 0,17,30.00,45.00,WinterDesignDay
7,-0.1
2,1, 1,21, 0,17,45.00,60.00,WinterDesignDay
7,-0.1
2,1, 1,21, 0,17, 0.00,60.00,WinterDesignDay
4438,119703.02920452638
2,1, 1,21, 0,18, 0.00,15.00,WinterDesignDay
7,-0.1
2,1, 1,21, 0,18,15.00,30.00,WinterDesignDay
7,-0.1
2,1, 1,21, 0,18,30.00,45.00,WinterDesignDay
7,-0.1
2,1, 1,21, 0,18,45.00,60.00,WinterDesignDay
7,-0.1
2,1, 1,21, 0,18, 0.00,60.00,WinterDesignDay
4438,119359.2471619027
2,1, 1,21, 0,19, 0.00,15.00,WinterDesignDay
7,-0.1
2,1, 1,21, 0,19,15.00,30.00,WinterDesignDay
7,-0.1
2,1, 1,21, 0,19,30.00,45.00,WinterDesignDay
7,-0.1
2,1, 1,21, 0,19,45.00,60.00,WinterDesignDay
7,-0.1
2,1, 1,21, 0,19, 0.00,60.00,WinterDesignDay
4438,119141.12222942767
2,1, 1,21, 0,20, 0.00,15.00,WinterDesignDay
7,-0.1
2,1, 1,21, 0,20,15.00,30.00,WinterDesignDay
7,-0.1
2,1, 1,21, 0,20,30.00,45.00,WinterDesignDay
7,-0.1
2,1, 1,21, 0,20,45.00,60.00,WinterDesignDay
7,-0.1
2,1, 1,21, 0,20, 0.00,60.00,WinterDesignDay
4438,118949.84101648676
2,1, 1,21, 0,21, 0.00,15.00,WinterDesignDay
7,-0.1
2,1, 1,21, 0,21,15.00,30.00,WinterDesignDay
7,-0.1
2,1, 1,21, 0,21,30.00,45.00,WinterDesignDay
7,-0.1
2,1, 1,21, 0,21,45.00,60.00,WinterDesignDay
7,-0.1
2,1, 1,21, 0,21, 0.00,60.00,WinterDesignDay
4438,118797.81524335413
2,1, 1,21, 0,22, 0.00,15.00,WinterDesignDay
7,-0.1
2,1, 1,21, 0,22,15.00,30.00,WinterDesignDay
7,-0.1
2,1, 1,21, 0,22,30.00,45.00,WinterDesignDay
7,-0.1
2,1, 1,21, 0,22,45.00,60.00,WinterDesignDay
7,-0.1
2,1, 1,21, 0,22, 0.00,60.00,WinterDesignDay
4438,71111.36975119496
2,1, 1,21, 0,23, 0.00,15.00,WinterDesignDay
7,-0.1
2,1, 1,21, 0,23,15.00,30.00,WinterDesignDay
7,-0.1
2,1, 1,21, 0,23,30.00,45.00,WinterDesignDay
7,-0.1
2,1, 1,21, 0,23,45.00,60.00,WinterDesignDay
7,-0.1
2,1, 1,21, 0,23, 0.00,60.00,WinterDesignDay
4438,77308.6384878086
2,1, 1,21, 0,24, 0.00,15.00,WinterDesignDay
7,-0.1
2,1, 1,21, 0,24,15.00,30.00,WinterDesignDay
7,-0.1
2,1, 1,21, 0,24,30.00,45.00,WinterDesignDay
7,-0.1
2,1, 1,21, 0,24,45.00,60.00,WinterDesignDay
7,-0.1
2,1, 1,21, 0,24, 0.00,60.00,WinterDesignDay
4438,85258.90208843691
1,ARCATA-AIRPORT AUG CLG 0.4% CONDNS DB=>MCWB,  40.98,-124.10,  -8.00,  62.00
2,1, 8,21, 0, 1, 0.00,15.00,SummerDesignDay
7,17.4075
2,1, 8,21, 0, 1,15.00,30.00,SummerDesignDay
7,17.325
2,1, 8,21, 0, 1,30.00,45.00,SummerDesignDay
7,17.2425
2,1, 8,21, 0, 1,45.00,60.00,SummerDesignDay
7,17.16
2,1, 8,21, 0, 1, 0.00,60.00,SummerDesignDay
4438,0.0
2,1, 8,21, 0, 2, 0.00,15.00,SummerDesignDay
7,17.105
2,1, 8,21, 0, 2,15.00,30.00,SummerDesignDay
7,17.05
2,1, 8,21, 0, 2,30.00,45.00,SummerDesignDay
7,16.995
2,1, 8,21, 0, 2,45.00,60.00,SummerDesignDay
7,16.939999999999999
2,1, 8,21, 0, 2, 0.00,60.00,SummerDesignDay
4438,0.0
2,1, 8,21, 0, 3, 0.00,15.00,SummerDesignDay
7,16.89875
2,1, 8,21, 0, 3,15.00,30.00,SummerDesignDay
7,16.8575
2,1, 8,21, 0, 3,30.00,45.00,SummerDesignDay
7,16.81625
2,1, 8,21, 0, 3,45.00,60.00,SummerDesignDay
7,16.775
2,1, 8,21, 0, 3, 0.00,60.00,SummerDesignDay
4438,0.0
2,1, 8,21, 0, 4, 0.00,15.00,SummerDesignDay
7,16.73375
2,1, 8,21, 0, 4,15.00,30.00,SummerDesignDay
7,16.6925
2,1, 8,21, 0, 4,30.00,45.00,SummerDesignDay
7,16.65125
2,1, 8,21, 0, 4,45.00,60.00,SummerDesignDay
7,16.61
2,1, 8,21, 0, 4, 0.00,60.00,SummerDesignDay
4438,0.0
2,1, 8,21, 0, 5, 0.00,15.00,SummerDesignDay
7,16.5825
2,1, 8,21, 0, 5,15.00,30.00,SummerDesignDay
7,16.555
2,1, 8,21, 0, 5,30.00,45.00,SummerDesignDay
7,16.5275
2,1, 8,21, 0, 5,45.00,60.00,SummerDesignDay
7,16.5
2,1, 8,21, 0, 5, 0.00,60.00,SummerDesignDay
4438,0.0
2,1, 8,21, 0, 6, 0.00,15.00,SummerDesignDay
7,16.5275
2,1, 8,21, 0, 6,15.00,30.00,SummerDesignDay
7,16.555
2,1, 8,21, 0, 6,30.00,45.00,SummerDesignDay
7,16.5825
2,1, 8,21, 0, 6,45.00,60.00,SummerDesignDay
7,16.61
2,1, 8,21, 0, 6, 0.00,60.00,SummerDesignDay
4438,0.0
2,1, 8,21, 0, 7, 0.00,15.00,SummerDesignDay
7,16.70625
2,1, 8,21, 0, 7,15.00,30.00,SummerDesignDay
7,16.8025
2,1, 8,21, 0, 7,30.00,45.00,SummerDesignDay
7,16.89875
2,1, 8,21, 0, 7,45.00,60.00,SummerDesignDay
7,16.995
2,1, 8,21, 0, 7, 0.00,60.00,SummerDesignDay
4438,174.70197398603717
2,1, 8,21, 0, 8, 0.00,15.00,SummerDesignDay
7,17.22875
2,1, 8,21, 0, 8,15.00,30.00,SummerDesignDay
7,17.4625
2,1, 8,21, 0, 8,30.00,45.00,SummerDesignDay
7,17.69625
2,1, 8,21, 0, 8,45.00,60.00,SummerDesignDay
7,17.93
2,1, 8,21, 0, 8, 0.00,60.00,SummerDesignDay
4438,0.0
2,1, 8,21, 0, 9, 0.00,15.00,SummerDesignDay
7,18.19125
2,1, 8,21, 0, 9,15.00,30.00,SummerDesignDay
7,18.4525
2,1, 8,21, 0, 9,30.00,45.00,SummerDesignDay
7,18.71375
2,1, 8,21, 0, 9,45.00,60.00,SummerDesignDay
7,18.975
2,1, 8,21, 0, 9, 0.00,60.00,SummerDesignDay
4438,0.0
2,1, 8,21, 0,10, 0.00,15.00,SummerDesignDay
7,19.20875
2,1, 8,21, 0,10,15.00,30.00,SummerDesignDay
7,19.4425
2,1, 8,21, 0,10,30.00,45.00,SummerDesignDay
7,19.67625
2,1, 8,21, 0,10,45.00,60.00,SummerDesignDay
7,19.91
2,1, 8,21, 0,10, 0.00,60.00,SummerDesignDay
4438,0.0
2,1, 8,21, 0,11, 0.00,15.00,SummerDesignDay
7,20.11625
2,1, 8,21, 0,11,15.00,30.00,SummerDesignDay
7,20.3225
2,1, 8,21, 0,11,30.00,45.00,SummerDesignDay
7,20.52875
2,1, 8,21, 0,11,45.00,60.00,SummerDesignDay
7,20.735
2,1, 8,21, 0,11, 0.00,60.00,SummerDesignDay
4438,0.0
2,1, 8,21, 0,12, 0.00,15.00,SummerDesignDay
7,20.8725
2,1, 8,21, 0,12,15.00,30.00,SummerDesignDay
7,21.01
2,1, 8,21, 0,12,30.00,45.00,SummerDesignDay
7,21.1475
2,1, 8,21, 0,12,45.00,60.00,SummerDesignDay
7,21.285
2,1, 8,21, 0,12, 0.00,60.00,SummerDesignDay
4438,0.0
2,1, 8,21, 0,13, 0.00,15.00,SummerDesignDay
7,21.395
2,1, 8,21, 0,13,15.00,30.00,SummerDesignDay
7,21.505
2,1, 8,21, 0,13,30.00,45.00,SummerDesignDay
7,21.615
2,1, 8,21, 0,13,45.00,60.00,SummerDesignDay
7,21.725
2,1, 8,21, 0,13, 0.00,60.00,SummerDesignDay
4438,0.0
2,1, 8,21, 0,14, 0.00,15.00,SummerDesignDay
7,21.79375
2,1, 8,21, 0,14,15.00,30.00,SummerDesignDay
7,21.8625
2,1, 8,21, 0,14,30.00,45.00,SummerDesignDay
7,21.93125
2,1, 8,21, 0,14,45.00,60.00,SummerDesignDay
7,22.0
2,1, 8,21, 0,14, 0.00,60.00,SummerDesignDay
4438,30.64850838209808
2,1, 8,21, 0,15, 0.00,15.00,SummerDesignDay
7,22.0
2,1, 8,21, 0,15,15.00,30.00,SummerDesignDay
7,22.0
2,1, 8,21, 0,15,30.00,45.00,SummerDesignDay
7,22.0
2,1, 8,21, 0,15,45.00,60.00,SummerDesignDay
7,22.0
2,1, 8,21, 0,15, 0.00,60.00,SummerDesignDay
4438,52.64753242251551
2,1, 8,21, 0,16, 0.00,15.00,SummerDesignDay
7,21.9175
2,1, 8,21, 0,16,15.00,30.00,SummerDesignDay
7,21.835
2,1, 8,21, 0,16,30.00,45.00,SummerDesignDay
7,21.7525
2,1, 8,21, 0,16,45.00,60.00,SummerDesignDay
7,21.67
2,1, 8,21, 0,16, 0.00,60.00,SummerDesignDay
4438,65.90464966126626
2,1, 8,21, 0,17, 0.00,15.00,SummerDesignDay
7,21.56
2,1, 8,21, 0,17,15.00,30.00,SummerDesignDay
7,21.45
2,1, 8,21, 0,17,30.00,45.00,SummerDesignDay
7,21.34
2,1, 8,21, 0,17,45.00,60.00,SummerDesignDay
7,21.23
2,1, 8,21, 0,17, 0.00,60.00,SummerDesignDay
4438,81.29497473815913
2,1, 8,21, 0,18, 0.00,15.00,SummerDesignDay
7,21.0925
2,1, 8,21, 0,18,15.00,30.00,SummerDesignDay
7,20.955
2,1, 8,21, 0,18,30.00,45.00,SummerDesignDay
7,20.8175
2,1, 8,21, 0,18,45.00,60.00,SummerDesignDay
7,20.68
2,1, 8,21, 0,18, 0.00,60.00,SummerDesignDay
4438,99.26810023768971
2,1, 8,21, 0,19, 0.00,15.00,SummerDesignDay
7,20.47375
2,1, 8,21, 0,19,15.00,30.00,SummerDesignDay
7,20.2675
2,1, 8,21, 0,19,30.00,45.00,SummerDesignDay
7,20.06125
2,1, 8,21, 0,19,45.00,60.00,SummerDesignDay
7,19.855
2,1, 8,21, 0,19, 0.00,60.00,SummerDesignDay
4438,124.65875509057256
2,1, 8,21, 0,20, 0.00,15.00,SummerDesignDay
7,19.70375
2,1, 8,21, 0,20,15.00,30.00,SummerDesignDay
7,19.5525
2,1, 8,21, 0,20,30.00,45.00,SummerDesignDay
7,19.40125
2,1, 8,21, 0,20,45.00,60.00,SummerDesignDay
7,19.25
2,1, 8,21, 0,20, 0.00,60.00,SummerDesignDay
4438,153.35173557028254
2,1, 8,21, 0,21, 0.00,15.00,SummerDesignDay
7,19.12625
2,1, 8,21, 0,21,15.00,30.00,SummerDesignDay
7,19.0025
2,1, 8,21, 0,21,30.00,45.00,SummerDesignDay
7,18.87875
2,1, 8,21, 0,21,45.00,60.00,SummerDesignDay
7,18.755
2,1, 8,21, 0,21, 0.00,60.00,SummerDesignDay
4438,177.9861906080735
2,1, 8,21, 0,22, 0.00,15.00,SummerDesignDay
7,18.63125
2,1, 8,21, 0,22,15.00,30.00,SummerDesignDay
7,18.5075
2,1, 8,21, 0,22,30.00,45.00,SummerDesignDay
7,18.38375
2,1, 8,21, 0,22,45.00,60.00,SummerDesignDay
7,18.259999999999999
2,1, 8,21, 0,22, 0.00,60.00,SummerDesignDay
4438,0.0
2,1, 8,21, 0,23, 0.00,15.00,SummerDesignDay
7,18.16375
2,1, 8,21, 0,23,15.00,30.00,SummerDesignDay
7,18.0675
2,1, 8,21, 0,23,30.00,45.00,SummerDesignDay
7,17.971249999999999
2,1, 8,21, 0,23,45.00,60.00,SummerDesignDay
7,17.875
2,1, 8,21, 0,23, 0.00,60.00,SummerDesignDay
4438,0.0
2,1, 8,21, 0,24, 0.00,15.00,SummerDesignDay
7,17.778750000000004
2,1, 8,21, 0,24,15.00,30.00,SummerDesignDay
7,17.6825
2,1, 8,21, 0,24,30.00,45.00,SummerDesignDay
7,17.58625
2,1, 8,21, 0,24,45.00,60.00,SummerDesignDay
7,17.490000000000003
2,1, 8,21, 0,24, 0.00,60.00,SummerDesignDay
4438,0.0
1,ARCATA-AIRPORT JUL CLG 0.4% CONDNS DB=>MCWB,  40.98,-124.10,  -8.00,  62.00
2,1, 7,21, 0, 1, 0.00,15.00,SummerDesignDay
7,16.892
2,1, 7,21, 0, 1,15.00,30.00,SummerDesignDay
7,16.82
2,1, 7,21, 0, 1,30.00,45.00,SummerDesignDay
7,16.747999999999999
2,1, 7,21, 0, 1,45.00,60.00,SummerDesignDay
7,16.676
2,1, 7,21, 0, 1, 0.00,60.00,SummerDesignDay
4438,0.0
2,1, 7,21, 0, 2, 0.00,15.00,SummerDesignDay
7,16.628
2,1, 7,21, 0, 2,15.00,30.00,SummerDesignDay
7,16.58
2,1, 7,21, 0, 2,30.00,45.00,SummerDesignDay
7,16.531999999999998
2,1, 7,21, 0, 2,45.00,60.00,SummerDesignDay
7,16.483999999999999
2,1, 7,21, 0, 2, 0.00,60.00,SummerDesignDay
4438,0.0
2,1, 7,21, 0, 3, 0.00,15.00,SummerDesignDay
7,16.448
2,1, 7,21, 0, 3,15.00,30.00,SummerDesignDay
7,16.412
2,1, 7,21, 0, 3,30.00,45.00,SummerDesignDay
7,16.375999999999999
2,1, 7,21, 0, 3,45.00,60.00,SummerDesignDay
7,16.34
2,1, 7,21, 0, 3, 0.00,60.00,SummerDesignDay
4438,0.0
2,1, 7,21, 0, 4, 0.00,15.00,SummerDesignDay
7,16.304
2,1, 7,21, 0, 4,15.00,30.00,SummerDesignDay
7,16.268
2,1, 7,21, 0, 4,30.00,45.00,SummerDesignDay
7,16.232
2,1, 7,21, 0, 4,45.00,60.00,SummerDesignDay
7,16.195999999999999
2,1, 7,21, 0, 4, 0.00,60.00,SummerDesignDay
4438,0.0
2,1, 7,21, 0, 5, 0.00,15.00,SummerDesignDay
7,16.171999999999998
2,1, 7,21, 0, 5,15.00,30.00,SummerDesignDay
7,16.148
2,1, 7,21, 0, 5,30.00,45.00,SummerDesignDay
7,16.124
2,1, 7,21, 0, 5,45.00,60.00,SummerDesignDay
7,16.099999999999999
2,1, 7,21, 0, 5, 0.00,60.00,SummerDesignDay
4438,0.0
2,1, 7,21, 0, 6, 0.00,15.00,SummerDesignDay
7,16.124
2,1, 7,21, 0, 6,15.00,30.00,SummerDesignDay
7,16.148
2,1, 7,21, 0, 6,30.00,45.00,SummerDesignDay
7,16.171999999999998
2,1, 7,21, 0, 6,45.00,60.00,SummerDesignDay
7,16.195999999999999
2,1, 7,21, 0, 6, 0.00,60.00,SummerDesignDay
4438,0.0
2,1, 7,21, 0, 7, 0.00,15.00,SummerDesignDay
7,16.279999999999999
2,1, 7,21, 0, 7,15.00,30.00,SummerDesignDay
7,16.363999999999998
2,1, 7,21, 0, 7,30.00,45.00,SummerDesignDay
7,16.448
2,1, 7,21, 0, 7,45.00,60.00,SummerDesignDay
7,16.531999999999998
2,1, 7,21, 0, 7, 0.00,60.00,SummerDesignDay
4438,63.67473272395429
2,1, 7,21, 0, 8, 0.00,15.00,SummerDesignDay
7,16.735999999999998