Program Version,EnergyPlus, Version 9.0.1-bb7ca4f0da, YMD=2019.12.17 18:13
1,5,Environment Title[],Latitude[deg],Longitude[deg],Time Zone[],Elevation[m]
2,8,Day of Simulation[],Month[],Day of Month[],DST Indicator[1=yes 0=no],Hour[],StartMinute[],EndMinute[],DayType
3,5,Cumulative Day of Simulation[],Month[],Day of Month[],DST Indicator[1=yes 0=no],DayType  ! When Daily Meters Requested
4,2,Cumulative Days of Simulation[],Month[]  ! When Monthly Meters Requested
5,1,Cumulative Days of Simulation[] ! When Run Period Meters Requested
6,1,Calendar Year of Simulation[] ! When Annual Meters Requested
4121,1,Fans:Electricity [J] !Hourly
1532,1,InteriorEquipment:Gas [J] !Hourly
4243,1,Heating:Electricity [J] !Hourly
46,1,InteriorLights:Electricity [J] !Hourly
10,1,Electricity:Facility [J] !Hourly
992,1,InteriorEquipment:Electricity [J] !Hourly
4480,1,Pumps:Electricity [J] !Hourly
2227,1,WaterSystems:Electricity [J] !Hourly
4354,1,Cooling:Electricity [J] !Hourly
1496,1,Gas:Facility [J] !Hourly
2365,1,WaterSystems:Gas [J] !Hourly
4230,1,Heating:Gas [J] !Hourly
1016,1,Receptacle:InteriorEquipment:Electricity [J] !Hourly
1556,1,Receptacle:InteriorEquipment:Gas [J] !Hourly
70,1,ComplianceLtg:InteriorLights:Electricity [J] !Hourly
345,1,NonComplianceLtg:InteriorLights:Electricity [J] !Hourly
4133,1,General:Fans:Electricity [J] !Hourly
4170,1,ProcessMotors:Fans:Electricity [J] !Hourly
End of Data Dictionary
1,FRESNO-YOSEMITE-INTL-AP ANN CLG 0.4% CONDNS DB=>MCWB,  36.78,-119.72,  -8.00, 102.00
2,1, 7,21, 0, 1, 0.00,60.00,SummerDesignDay
10,712566731.5392287
46,249737579.99999974
70,96701579.99999997
345,153035999.9999997
992,231449399.99999977
1016,231449399.99999977
1496,63736723.078301358
1532,57764642.17263899
1556,57764642.17263899
2227,17616996.479837814
2365,5972080.905662367
4121,244.53386162650515
4133,40.32155670101966
4170,146.49394504991597
4230,0.0
4243,0.0
4354,213762510.5255291
4480,0.0
2,1, 7,21, 0, 2, 0.00,60.00,SummerDesignDay
10,700750311.7494851
46,249737579.99999974
70,96701579.99999997
345,153035999.9999997
992,231449399.99999977
1016,231449399.99999977
1496,64104993.353487137
1532,57764642.17263899
1556,57764642.17263899
2227,17617294.939595939
2365,6340351.180848149
4121,242.14906049588115
4133,40.33648964528635
4170,146.49394504991597
4230,0.0
4243,0.0
4354,201945794.66082878
4480,0.0
2,1, 7,21, 0, 3, 0.00,60.00,SummerDesignDay
10,692701758.6640153
46,249737579.99999974
70,96701579.99999997
345,153035999.9999997
992,231449399.99999977
1016,231449399.99999977
1496,63781512.75196578
1532,57764642.17263899
1556,57764642.17263899
2227,17617049.400945948
2365,6016870.579326792
4121,240.5651343635905
4133,40.34751080724256
4170,146.49394504991597
4230,0.0
4243,0.0
4354,193897488.69793485
4480,0.0
2,1, 7,21, 0, 4, 0.00,60.00,SummerDesignDay
10,686176127.7610098
46,249737579.99999974
70,96701579.99999997
345,153035999.9999997
992,231449399.99999977
1016,231449399.99999977
1496,64060505.81933552
1532,57764642.17263899
1556,57764642.17263899
2227,18181279.059049637
2365,6295863.646696525
4121,239.2307043469343
4133,40.35510360530013
4170,146.49394504991597
4230,0.0
4243,0.0
4354,186807629.47125579
4480,0.0
2,1, 7,21, 0, 5, 0.00,60.00,SummerDesignDay
10,680533886.9500678
46,249737579.99999974
70,96701579.99999997
345,153035999.9999997
992,231449399.99999977
1016,231449399.99999977
1496,63904245.96717338
1532,57764642.17263899
1556,57764642.17263899
2227,18149092.07934603
2365,6139603.794534398
4121,238.24021879286708
4133,40.360343024585407
4170,146.49394504991597
4230,0.0
4243,0.0
4354,181197576.63050289
4480,0.0
2,1, 7,21, 0, 6, 0.00,60.00,SummerDesignDay
10,711989456.5572585
46,249737579.99999974
70,96701579.99999997
345,153035999.9999997
992,231449399.99999977
1016,231449399.99999977
1496,63938043.163469407
1532,57764642.17263899
1556,57764642.17263899
2227,17617341.426464254
2365,6173400.990830416
4121,251.17341504786155
4133,48.70174814324603
4170,146.49394504991597
4230,0.0
4243,0.0
4354,213184883.95737899
4480,0.0
2,1, 7,21, 0, 7, 0.00,60.00,SummerDesignDay
10,803895645.9432048
46,249737579.99999974
70,96701579.99999997
345,153035999.9999997
992,231449399.99999977
1016,231449399.99999977
1496,64026952.65023929
1532,57764642.17263899
1556,57764642.17263899
2227,17618434.34181287
2365,6262310.477600293
4121,300.41381088792107
4133,87.47653553391811
4170,146.49394504991597
4230,0.0
4243,0.0
4354,305089931.1875812
4480,0.0
2,1, 7,21, 0, 8, 0.00,60.00,SummerDesignDay
10,822185749.6158332
46,249737579.99999974
70,96701579.99999997
345,153035999.9999997
992,231449399.99999977
1016,231449399.99999977
1496,63815409.3689081
1532,57764642.17263899
1556,57764642.17263899
2227,17647581.54595484
2365,6050767.196269113
4121,289.0300932259348
4133,65.45778082231664
4170,146.49394504991597
4230,0.0
4243,0.0
4354,323350899.03978529
4480,0.0
2,1, 7,21, 0, 9, 0.00,60.00,SummerDesignDay
10,871331390.3695313
46,249737579.99999974
70,96701579.99999997
345,153035999.9999997
992,231449399.99999977
1016,231449399.99999977
1496,64105247.87590348
1532,57764642.17263899
1556,57764642.17263899
2227,18413541.05339069
2365,6340605.703264492
4121,298.8843025973088
4133,62.61108128004967
4170,146.49394504991597
4230,0.0
4243,0.0
4354,371730570.4318379
4480,0.0
2,1, 7,21, 0,10, 0.00,60.00,SummerDesignDay
10,919038226.3660089
46,249737579.99999974
70,96701579.99999997
345,153035999.9999997
992,231449399.99999977
1016,231449399.99999977
1496,63736757.43140647
1532,57764642.17263899
1556,57764642.17263899
2227,17886754.03005256
2365,5972115.258767474
4121,307.83142546898878
4133,62.27987738422881
4170,146.49394504991597
4230,0.0
4243,0.0
4354,419964184.5045309
4480,0.0
2,1, 7,21, 0,11, 0.00,60.00,SummerDesignDay
10,959980284.9258342
46,249737579.99999974
70,96701579.99999997
345,153035999.9999997
992,231449399.99999977
1016,231449399.99999977
1496,64105075.591745968
1532,57764642.17263899
1556,57764642.17263899
2227,17617316.737674323
2365,6340433.419106967
4121,313.6228279089744
4133,62.244992404515098
4170,146.49394504991597
4230,0.0
4243,0.0
4354,461175674.5653321
4480,0.0
2,1, 7,21, 0,12, 0.00,60.00,SummerDesignDay
10,992075711.9720466
46,249737579.99999974
70,96701579.99999997
345,153035999.9999997
992,231449399.99999977
1016,231449399.99999977
1496,63825231.72094124
1532,57764642.17263899
1556,57764642.17263899
2227,17617137.033525137
2365,6060589.548302252
4121,317.6711771703327
4133,62.36671237114607
4170,146.49394504991597
4230,0.0
4243,0.0
4354,493271277.26734426
4480,0.0
2,1, 7,21, 0,13, 0.00,60.00,SummerDesignDay
10,1019817798.6749587
46,249737579.99999974
70,96701579.99999997
345,153035999.9999997
992,231449399.99999977
1016,231449399.99999977
1496,64016748.79625152
1532,57764642.17263899
1556,57764642.17263899
2227,17910430.52394072
2365,6252106.6236125309
4121,322.10453662749378
4133,62.78314250502852
4170,146.49394504991597
4230,0.0
4243,0.0
4354,520720066.04648128
4480,0.0
2,1, 7,21, 0,14, 0.00,60.00,SummerDesignDay
10,1047875337.142371
46,249737579.99999974
70,96701579.99999997
345,153035999.9999997
992,231449399.99999977
1016,231449399.99999977
1496,63948004.6038268
1532,57764642.17263899
1556,57764642.17263899
2227,18413884.935020165
2365,6183362.431187812
4121,329.0293010877081
4133,63.87746307664332
4170,146.49394504991597
4230,0.0
4243,0.0
4354,548274143.1780498
4480,0.0
2,1, 7,21, 0,15, 0.00,60.00,SummerDesignDay
10,1068557522.4284438
46,249737579.99999974
70,96701579.99999997
345,153035999.9999997
992,231449399.99999977
1016,231449399.99999977
1496,63893953.00739564
1532,57764642.17263899
1556,57764642.17263899
2227,17623661.10733356
2365,6129310.834756656
4121,337.5126308400458
4133,65.67339894142
4170,146.49394504991597
4230,0.0
4243,0.0
4354,569746543.8084794
4480,0.0
2,1, 7,21, 0,16, 0.00,60.00,SummerDesignDay
10,1068596421.6800315
46,249737579.99999974
70,96701579.99999997
345,153035999.9999997
992,231449399.99999977
1016,231449399.99999977
1496,64070702.94468327
1532,57764642.17263899
1556,57764642.17263899
2227,17617301.11560049
2365,6306060.772044277
4121,341.68091452949826
4133,66.96290025143152
4170,146.49394504991597
4230,0.0
4243,0.0
4354,569791798.8835166
4480,0.0
2,1, 7,21, 0,17, 0.00,60.00,SummerDesignDay
10,1045467581.8614725
46,249737579.99999974
70,96701579.99999997
345,153035999.9999997
992,231449399.99999977
1016,231449399.99999977
1496,63771429.52397901
1532,57764642.17263899
1556,57764642.17263899
2227,17617062.14861827
2365,6006787.3513400149
4121,338.110981250196
4133,66.78686048859368
4170,146.49394504991597
4230,0.0
4243,0.0
4354,546663201.6018728
4480,0.0
2,1, 7,21, 0,18, 0.00,60.00,SummerDesignDay
10,1011874611.961421
46,249737579.99999974
70,96701579.99999997
345,153035999.9999997
992,231449399.99999977
1016,231449399.99999977
1496,64105042.46102992
1532,57764642.17263899
1556,57764642.17263899
2227,18173835.42350754
2365,6340400.288390924
4121,330.56627425123676
4133,65.52687315849399
4170,146.49394504991597
4230,0.0
4243,0.0
4354,512513465.9716391
4480,0.0
2,1, 7,21, 0,19, 0.00,60.00,SummerDesignDay
10,954050571.2275381
46,249737579.99999974
70,96701579.99999997
345,153035999.9999997
992,231449399.99999977
1016,231449399.99999977
1496,63746695.584677029
1532,57764642.17263899
1556,57764642.17263899
2227,18156502.982109939
2365,5982053.412038028
4121,313.94707574700228
4133,62.594791206959559
4170,146.49394504991597
4230,0.0
4243,0.0
4354,454706774.2983524
4480,0.0
2,1, 7,21, 0,20, 0.00,60.00,SummerDesignDay
10,892665513.3309217
46,249737579.99999974
70,96701579.99999997
345,153035999.9999997
992,231449399.99999977
1016,231449399.99999977
1496,64095365.40723249
1532,57764642.17263899
1556,57764642.17263899
2227,17617447.760639136
2365,6330723.234593504
4121,294.3480101244475
4133,59.36689315044018
4170,146.49394504991597
4230,0.0
4243,0.0
4354,393860791.2222724
4480,0.0
2,1, 7,21, 0,21, 0.00,60.00,SummerDesignDay
10,853194143.1671538
46,249737579.99999974
70,96701579.99999997
345,153035999.9999997
992,231449399.99999977
1016,231449399.99999977
1496,63869169.12900161
1532,57764642.17263899
1556,57764642.17263899
2227,17617170.03425904
2365,6104526.956362622
4121,282.35490310701189
4133,57.07958242219843
4170,146.49394504991597
4230,0.0
4243,0.0
4354,354389710.77799186
4480,0.0
2,1, 7,21, 0,22, 0.00,60.00,SummerDesignDay
10,788634263.6841767
46,249737579.99999974
70,96701579.99999997
345,153035999.9999997
992,231449399.99999977
1016,231449399.99999977
1496,63973654.58426093
1532,57764642.17263899
1556,57764642.17263899
2227,17641458.7834726
2365,6209012.411621945
4121,262.4647715494382
4133,44.3765919474847
4170,146.49394504991597
4230,0.0
4243,0.0
4354,289805562.43593278
4480,0.0
2,1, 7,21, 0,23, 0.00,60.00,SummerDesignDay
10,765614239.8819845
46,249737579.99999974
70,96701579.99999997
345,153035999.9999997
992,231449399.99999977
1016,231449399.99999977
1496,63991142.88317627
1532,57764642.17263899
1556,57764642.17263899
2227,18413647.624632628
2365,6226500.710537279
4121,256.595978640239
4133,44.02321387390594
4170,146.49394504991597
4230,0.0
4243,0.0
4354,266013355.6613732
4480,0.0
2,1, 7,21, 0,24, 0.00,60.00,SummerDesignDay
10,744849496.5582527
46,249737579.99999974
70,96701579.99999997
345,153035999.9999997
992,231449399.99999977
1016,231449399.99999977
1496,63850838.5046393
1532,57764642.17263899
1556,57764642.17263899
2227,17893704.214450778
2365,6086196.332000311
4121,251.76124602091753
4133,43.7519730748709
4170,146.49394504991597
4230,0.0
4243,0.0
4354,245768560.58255593
4480,0.0
1,FRESNO-YOSEMITE-INTL-AP ANN CLG 0.4% CONDNS DP=>MCDB,  36.78,-119.72,  -8.00, 102.00
2,1, 7,21, 0, 1, 0.00,60.00,SummerDesignDay
10,600867512.1085683
46,249737579.99999974
70,96701579.99999997
345,153035999.9999997
992,231449399.99999977
1016,231449399.99999977
1496,63736805.15287794
1532,57764642.17263899
1556,57764642.17263899
2227,17617344.436837779
2365,5972162.98023895
4121,221.0022613165483
4133,40.280504095380567
4170,146.49394504991597
4230,0.0
4243,0.0
4354,102062966.66946915
4480,0.0
2,1, 7,21, 0, 2, 0.00,60.00,SummerDesignDay
10,584095285.9811815
46,249737579.99999974
70,96701579.99999997
345,153035999.9999997
992,231449399.99999977
1016,231449399.99999977
1496,64104993.52107924
1532,57764642.17263899
1556,57764642.17263899
2227,17617295.592160856
2365,6340351.348440254
4121,217.79110783524653
4133,40.285634925118348
4170,146.49394504991597
4230,0.0
4243,0.0
4354,85290792.59791279
4480,0.0
2,1, 7,21, 0, 3, 0.00,60.00,SummerDesignDay
10,572121943.6822336
46,249737579.99999974
70,96701579.99999997
345,153035999.9999997
992,231449399.99999977
1016,231449399.99999977
1496,63781380.16196288
1532,57764642.17263899
1556,57764642.17263899
2227,17617050.755301168
2365,6016737.989323893
4121,215.3652035377146
4133,40.28877241089051
4170,146.49394504991597
4230,0.0
4243,0.0
4354,73317697.56172873
4480,0.0
2,1, 7,21, 0, 4, 0.00,60.00,SummerDesignDay
10,562305225.5225772
46,249737579.99999974
70,96701579.99999997
345,153035999.9999997
992,231449399.99999977
1016,231449399.99999977
1496,64060638.426719199
1532,57764642.17263899
1556,57764642.17263899
2227,18180484.333698758
2365,6295996.254080205
4121,213.26169358018704
4133,40.29073276354542
4170,146.49394504991597
4230,0.0
4243,0.0
4354,62937547.92718483
4480,0.0
2,1, 7,21, 0, 5, 0.00,60.00,SummerDesignDay
10,554202583.5991032
46,249737579.99999974
70,96701579.99999997
345,153035999.9999997
992,231449399.99999977
1016,231449399.99999977
1496,63904113.34033766
1532,57764642.17263899
1556,57764642.17263899
2227,18149885.309304798
2365,6139471.167698664
4121,211.63301171093753
4133,40.29192819265208
4170,146.49394504991597
4230,0.0
4243,0.0
4354,54865506.65678676
4480,0.0
2,1, 7,21, 0, 6, 0.00,60.00,SummerDesignDay
10,581045312.4072627
46,249737579.99999974
70,96701579.99999997
345,153035999.9999997
992,231449399.99999977
1016,231449399.99999977
1496,63937950.08335199
1532,57764642.17263899
1556,57764642.17263899
2227,17617842.569615075
2365,6173307.910713004
4121,220.4496677647474
4133,44.609044333124668
4170,146.49394504991597
4230,0.0
4243,0.0
4354,82240269.38797987
4480,0.0
2,1, 7,21, 0, 7, 0.00,60.00,SummerDesignDay
10,669235091.3163291
46,249737579.99999974
70,96701579.99999997
345,153035999.9999997
992,231449399.99999977
1016,231449399.99999977
1496,64074901.29550344
1532,57764642.17263899
1556,57764642.17263899
2227,17618057.438038306
2365,6262362.41511639
4121,249.4529227982195
4133,62.319735074299618
4170,146.49394504991597
4230,47896.70774805791
4243,0.0
4354,170429804.4253681
4480,0.0
2,1, 7,21, 0, 8, 0.00,60.00,SummerDesignDay
10,697026171.3564708
46,249737579.99999974
70,96701579.99999997
345,153035999.9999997
992,231449399.99999977
1016,231449399.99999977
1496,63815018.71656217
1532,57764642.17263899
1556,57764642.17263899
2227,17647072.77150824
2365,6050376.54392318
4121,251.8293275462554
4133,52.885095901849378
4170,146.49394504991597
4230,0.0
4243,0.0
4354,198191866.755635
4480,0.0
2,1, 7,21, 0, 9, 0.00,60.00,SummerDesignDay
10,757252937.4852997
46,249737579.99999974
70,96701579.99999997
345,153035999.9999997
992,231449399.99999977
1016,231449399.99999977
1496,64105247.43636701
1532,57764642.17263899
1556,57764642.17263899
2227,18413541.529789274
2365,6340605.263728019
4121,265.7534247336475
4133,52.636394885314278
4170,146.49394504991597
4230,0.0
4243,0.0
4354,257652150.2020856
4480,0.0
2,1, 7,21, 0,10, 0.00,60.00,SummerDesignDay
10,804614149.1627619
46,249737579.99999974
70,96701579.99999997
345,153035999.9999997
992,231449399.99999977
1016,231449399.99999977
1496,63736758.13833246
1532,57764642.17263899
1556,57764642.17263899
2227,17887261.683317163
2365,5972115.965693466
4121,276.0975377104704
4133,53.20644377360058
4170,146.49394504991597
4230,0.0
4243,0.0
4354,305539631.3819073
4480,0.0
2,1, 7,21, 0,11, 0.00,60.00,SummerDesignDay
10,840627140.385934
46,249737579.99999974
70,96701579.99999997
345,153035999.9999997
992,231449399.99999977
1016,231449399.99999977
1496,64105074.94597558
1532,57764642.17263899
1556,57764642.17263899
2227,17617317.137936467
2365,6340432.773336591
4121,282.30557091671587
4133,53.69114673982928
4170,146.49394504991597
4230,0.0
4243,0.0
4354,341822560.94242677
4480,0.0
2,1, 7,21, 0,12, 0.00,60.00,SummerDesignDay
10,866661410.752491
46,249737579.99999974
70,96701579.99999997
345,153035999.9999997
992,231449399.99999977
1016,231449399.99999977
1496,63825547.53492699
1532,57764642.17263899
1556,57764642.17263899
2227,17616869.647425128
2365,6060905.362288003
4121,286.6289523492759
4133,54.09661079472263
4170,146.49394504991597
4230,0.0
4243,0.0
4354,367857274.4761135
4480,0.0
2,1, 7,21, 0,13, 0.00,60.00,SummerDesignDay
10,889569364.6877602
46,249737579.99999974
70,96701579.99999997
345,153035999.9999997
992,231449399.99999977
1016,231449399.99999977
1496,64016459.44125741
1532,57764642.17263899
1556,57764642.17263899
2227,17910369.239973375
2365,6251817.268618421
4121,291.15928720334457
4133,54.6188534736571
4170,146.49394504991597
4230,0.0
4243,0.0
4354,390471724.28849968
4480,0.0
2,1, 7,21, 0,14, 0.00,60.00,SummerDesignDay
10,913382933.0441082
46,249737579.99999974
70,96701579.99999997
345,153035999.9999997
992,231449399.99999977
1016,231449399.99999977
1496,63948293.69733836
1532,57764642.17263899
1556,57764642.17263899
2227,18413884.911050757
2365,6183651.524699371
4121,297.9115861309546
4133,55.585097552800878
4170,146.49394504991597
4230,0.0
4243,0.0
4354,413781770.2214712
4480,0.0
2,1, 7,21, 0,15, 0.00,60.00,SummerDesignDay
10,931370478.5443571
46,249737579.99999974
70,96701579.99999997
345,153035999.9999997
992,231449399.99999977
1016,231449399.99999977
1496,63893664.19848334
1532,57764642.17263899
1556,57764642.17263899
2227,17623722.24497224
2365,6129022.025844351
4121,306.0119435652523
4133,57.07944091907861
4170,146.49394504991597
4230,0.0
4243,0.0
4354,432559470.28744128
4480,0.0
2,1, 7,21, 0,16, 0.00,60.00,SummerDesignDay
10,931635252.9308596
46,249737579.99999974
70,96701579.99999997
345,153035999.9999997
992,231449399.99999977
1016,231449399.99999977
1496,64070991.48724511
1532,57764642.17263899
1556,57764642.17263899
2227,17617301.1670349
2365,6306349.314606123
4121,309.7327195370391
4133,58.18963049686743
4170,146.49394504991597
4230,0.0
4243,0.0
4354,432830662.03110519
4480,0.0
2,1, 7,21, 0,17, 0.00,60.00,SummerDesignDay
10,911856870.8000746
46,249737579.99999974
70,96701579.99999997
345,153035999.9999997
992,231449399.99999977
1016,231449399.99999977
1496,63771141.28107448
1532,57764642.17263899
1556,57764642.17263899
2227,17617062.254136649
2365,6006499.108435488
4121,305.9822869873028
4133,58.12223700084418
4170,146.49394504991597
4230,0.0
4243,0.0
4354,413052522.5636509
4480,0.0
2,1, 7,21, 0,18, 0.00,60.00,SummerDesignDay
10,883400767.6559675
46,249737579.99999974
70,96701579.99999997
345,153035999.9999997
992,231449399.99999977
1016,231449399.99999977
1496,64105042.01318596
1532,57764642.17263899
1556,57764642.17263899
2227,18173774.147470759
2365,6340399.840546976
4121,298.61178262805086
4133,57.156547063922129
4170,146.49394504991597
4230,0.0
4243,0.0
4354,384039714.89671388
4480,0.0
2,1, 7,21, 0,19, 0.00,60.00,SummerDesignDay
10,832371088.3213321
46,249737579.99999974
70,96701579.99999997
345,153035999.9999997
992,231449399.99999977
1016,231449399.99999977
1496,63746984.75649412
1532,57764642.17263899
1556,57764642.17263899
2227,18156564.100722109
2365,5982342.583855133
4121,282.56050544073636
4133,54.88627099388525
4170,146.49394504991597
4230,0.0
4243,0.0
4354,333027261.6601045
4480,0.0
2,1, 7,21, 0,20, 0.00,60.00,SummerDesignDay
10,776739735.2892761
46,249737579.99999974
70,96701579.99999997
345,153035999.9999997
992,231449399.99999977
1016,231449399.99999977
1496,64139861.18355703
1532,57764642.17263899
1556,57764642.17263899
2227,17617644.68674251
2365,6330195.518667875
4121,264.31815391735815
4133,52.362412173737308
4170,146.49394504991597
4230,45023.4922501634
4243,0.0
4354,277934846.2843797
4480,0.0
2,1, 7,21, 0,21, 0.00,60.00,SummerDesignDay
10,739994103.4299059
46,249737579.99999974
70,96701579.99999997
345,153035999.9999997
992,231449399.99999977
1016,231449399.99999977
1496,63987051.16661709
1532,57764642.17263899
1556,57764642.17263899
2227,17617170.126628408
2365,6105245.3323750779
4121,253.22576254281183
4133,50.56203848737875
4170,146.49394504991597
4230,117163.66160302083
4243,0.0
4354,241189700.07751493
4480,0.0
2,1, 7,21, 0,22, 0.00,60.00,SummerDesignDay
10,685350963.5412334
46,249737579.99999974
70,96701579.99999997
345,153035999.9999997
992,231449399.99999977
1016,231449399.99999977
1496,63972719.07217124
1532,57764642.17263899
1556,57764642.17263899
2227,17640850.07427665
2365,6208076.899532247
4121,238.77866042289518
4133,43.14906120320127
4170,146.49394504991597
4230,0.0
4243,0.0
4354,186522894.68829636
4480,0.0
2,1, 7,21, 0,23, 0.00,60.00,SummerDesignDay
10,663517450.7947136
46,249737579.99999974
70,96701579.99999997
345,153035999.9999997
992,231449399.99999977
1016,231449399.99999977
1496,63991856.080637309
1532,57764642.17263899
1556,57764642.17263899
2227,18413647.43152671
2365,6227213.90799832
4121,232.82644902691318
4133,42.83089274325072
4170,146.49394504991597
4230,0.0
4243,0.0
4354,163916590.5367378
4480,0.0
2,1, 7,21, 0,24, 0.00,60.00,SummerDesignDay
10,636989792.2785136
46,249737579.99999974
70,96701579.99999997
345,153035999.9999997
992,231449399.99999977
1016,231449399.99999977
1496,63850126.24081561
1532,57764642.17263899
1556,57764642.17263899
2227,17894333.229023447
2365,6085484.0681766229
4121,227.7635060933612
4133,42.58934841594069
4170,146.49394504991597
4230,0.0
4243,0.0
4354,137908251.28598393
4480,0.0
1,FRESNO-YOSEMITE-INTL-AP ANN HTG 99.6% CONDNS DB,  36.78,-119.72,  -8.00, 102.00
2,1, 1,21, 0, 1, 0.00,60.00,WinterDesignDay
10,72223.77658761083
46,0.0
70,0.0
345,0.0
992,0.0
1016,0.0
1496,559529762.830284
1532,0.0
1556,0.0
2227,72000.0
2365,579679.2082582207
4121,223.77658761075765
4133,40.21702054877745
4170,146.49394504991597
4230,558950083.6220259
4243,0.0
4354,0.0
4480,0.0
2,1, 1,21, 0, 2, 0.00,60.00,WinterDesignDay
10,72236.81206122399
46,0.0
70,0.0
345,0.0
992,0.0
1016,0.0
1496,640308138.635919
1532,0.0
1556,0.0
2227,72000.0
2365,833426.0537777685
4121,236.81206122392468
4133,40.217020548777458
4170,146.49394504991597
4230,639474712.5821413
4243,0.0
4354,0.0
4480,0.0
2,1, 1,21, 0, 3, 0.00,60.00,WinterDesignDay
10,72246.41584226549
46,0.0
70,0.0
345,0.0
992,0.0
1016,0.0
1496,706253864.3267071
1532,0.0
1556,0.0
2227,72000.0
2365,833372.260113105
4121,246.41584226543189
4133,40.217020548777458
4170,146.49394504991597
4230,705420492.0665939
4243,0.0
4354,0.0
4480,0.0
2,1, 1,21, 0, 4, 0.00,60.00,WinterDesignDay
10,72253.95582761732
46,0.0
70,0.0
345,0.0
992,0.0
1016,0.0
1496,766771627.7658932
1532,0.0
1556,0.0
2227,72000.0
2365,833413.0287646682
4121,253.95582761725238
4133,40.217020548777458
4170,146.49394504991597
4230,765938214.7371286
4243,0.0
4354,0.0
4480,0.0
2,1, 1,21, 0, 5, 0.00,60.00,WinterDesignDay
10,72259.50508275956
46,0.0
70,0.0
345,0.0
992,0.0
1016,0.0
1496,810618849.4054294
1532,0.0
1556,0.0
2227,72000.0
2365,833295.4372784831
4121,259.5050827595111
4133,40.217020548777458
4170,146.49394504991597
4230,809785553.9681509
4243,0.0
4354,0.0
4480,0.0
2,1, 1,21, 0, 6, 0.00,60.00,WinterDesignDay
10,7099128.892631592
46,0.0
70,0.0
345,0.0
992,0.0
1016,0.0
1496,1015530523.308651
1532,0.0
1556,0.0
2227,72000.0
2365,670150.0893083506
4121,287.6261350465452
4133,64.76100292248754
4170,146.49394504991597
4230,1014860373.2193427
4243,0.0
4354,7026841.266496547
4480,0.0
2,1, 1,21, 0, 7, 0.00,60.00,WinterDesignDay
10,11577048.459042285
46,0.0
70,0.0
345,0.0
992,0.0
1016,0.0
1496,1680768439.544045
1532,0.0
1556,0.0
2227,72000.0
2365,742966.0889996428
4121,432.26319856268767
4133,128.7568322875709
4170,146.49394504991597
4230,1680025473.4550453
4243,0.0
4354,11504616.195843723
4480,0.0
2,1, 1,21, 0, 8, 0.00,60.00,WinterDesignDay
10,3570595.468644371
46,0.0
70,0.0
345,0.0
992,0.0
1016,0.0
1496,1554101933.433402
1532,0.0
1556,0.0
2227,72000.0
2365,833535.8421685386
4121,372.5816228352663
4133,72.36676254945673
4170,146.49394504991597
4230,1553268397.5912338
4243,0.0
4354,3498222.887021535
4480,0.0
2,1, 1,21, 0, 9, 0.00,60.00,WinterDesignDay
10,72336.24102866891
46,0.0
70,0.0
345,0.0
992,0.0
1016,0.0
1496,1446887680.510507
1532,0.0
1556,0.0
2227,72000.0
2365,833472.6555260709
4121,336.2410286688431
4133,43.04292634170869
4170,146.49394504991597
4230,1446054207.854981
4243,0.0
4354,0.0
4480,0.0
2,1, 1,21, 0,10, 0.00,60.00,WinterDesignDay
10,72324.75194570248
46,0.0
70,0.0
345,0.0
992,0.0
1016,0.0
1496,1369448059.4258748
1532,0.0
1556,0.0
2227,72000.0
2365,833459.9940481475
4121,324.75194570241089
4133,40.71872115230255
4170,146.49394504991597
4230,1368614599.4318267
4243,0.0
4354,0.0
4480,0.0
2,1, 1,21, 0,11, 0.00,60.00,WinterDesignDay
10,72316.59803532013
46,0.0
70,0.0
345,0.0
992,0.0
1016,0.0
1496,1310520974.0721846
1532,0.0
1556,0.0
2227,72000.0
2365,833292.0555806992
4121,316.5980353200566
4133,40.50602308270335
4170,146.49394504991597
4230,1309687682.016604
4243,0.0
4354,0.0
4480,0.0
2,1, 1,21, 0,12, 0.00,60.00,WinterDesignDay
10,72311.25912587688
46,0.0
70,0.0
345,0.0
992,0.0
1016,0.0
1496,1272438701.001175
1532,0.0
1556,0.0
2227,72000.0
2365,579602.1573224093
4121,311.25912587680389
4133,40.42013791582007
4170,146.49394504991597
4230,1271859098.8438526
4243,0.0
4354,0.0
4480,0.0
2,1, 1,21, 0,13, 0.00,60.00,WinterDesignDay
10,72307.58871505523
46,0.0
70,0.0
345,0.0
992,0.0
1016,0.0
1496,1246812567.2418328
1532,0.0
1556,0.0
2227,72000.0
2365,833383.6570969049
4121,307.5887150551564
4133,40.36753473689551
4170,146.49394504991597
4230,1245979183.5847359
4243,0.0
4354,0.0
4480,0.0
2,1, 1,21, 0,14, 0.00,60.00,WinterDesignDay
10,72304.99504367497
46,0.0
70,0.0
345,0.0
992,0.0
1016,0.0
1496,1228525267.5349718
1532,0.0
1556,0.0
2227,72000.0
2365,833425.1011091119
4121,304.9950436749199
4133,40.33351792421023
4170,146.49394504991597
4230,1227691842.4338625
4243,0.0
4354,0.0
4480,0.0
2,1, 1,21, 0,15, 0.00,60.00,WinterDesignDay
10,72303.15670847765
46,0.0
70,0.0
345,0.0
992,0.0
1016,0.0
1496,1215644660.172688
1532,0.0
1556,0.0
2227,72000.0
2365,833321.0966233376
4121,303.15670847757095
4133,40.310533633026768
4170,146.49394504991597
4230,1214811339.0760647
4243,0.0
4354,0.0
4480,0.0
2,1, 1,21, 0,16, 0.00,60.00,WinterDesignDay
10,72301.84000047711
46,0.0
70,0.0
345,0.0
992,0.0
1016,0.0
1496,1206371085.292741
1532,0.0
1556,0.0
2227,72000.0
2365,833348.6396673225
4121,301.8400004770222
4133,40.29517634191825
4170,146.49394504991597
4230,1205537736.6530739
4243,0.0
4354,0.0
4480,0.0
2,1, 1,21, 0,17, 0.00,60.00,WinterDesignDay
10,72300.87940002124
46,0.0
70,0.0
345,0.0
992,0.0
1016,0.0
1496,1199781157.4279447
1532,0.0
1556,0.0
2227,72000.0
2365,833388.8041651866
4121,300.8794000211767
4133,40.28464199278939
4170,146.49394504991597
4230,1198947768.6237798
4243,0.0
4354,0.0
4480,0.0
2,1, 1,21, 0,18, 0.00,60.00,WinterDesignDay
10,72300.17900701988
46,0.0
70,0.0
345,0.0
992,0.0
1016,0.0
1496,1194534677.699256
1532,0.0
1556,0.0
2227,72000.0
2365,579580.6612892447
4121,300.1790070197954
4133,40.27693919620075
4170,146.49394504991597
4230,1193955097.0379668
4243,0.0
4354,0.0
4480,0.0
2,1, 1,21, 0,19, 0.00,60.00,WinterDesignDay
10,72299.6857383748
46,0.0
70,0.0
345,0.0
992,0.0
1016,0.0
1496,1191338014.0988405
1532,0.0
1556,0.0
2227,72000.0
2365,833354.0762549827
4121,299.685738374717
4133,40.272051190357959
4170,146.49394504991597
4230,1190504660.0225855
4243,0.0
4354,0.0
4480,0.0
2,1, 1,21, 0,20, 0.00,60.00,WinterDesignDay
10,72299.32171488757
46,0.0
70,0.0
345,0.0
992,0.0
1016,0.0
1496,1188800766.0005003
1532,0.0
1556,0.0
2227,72000.0
2365,833392.9439198875
4121,299.32171488748767
4133,40.26832760455092
4170,146.49394504991597
4230,1187967373.0565804
4243,0.0
4354,0.0
4480,0.0
2,1, 1,21, 0,21, 0.00,60.00,WinterDesignDay
10,72299.0487181829
46,0.0
70,0.0
345,0.0
992,0.0
1016,0.0
1496,1186848566.3335579
1532,0.0
1556,0.0
2227,72000.0
2365,833433.5733742677
4121,299.0487181828353
4133,40.26586797705535
4170,146.49394504991597
4230,1186015132.7601839
4243,0.0
4354,0.0
4480,0.0
2,1, 1,21, 0,22, 0.00,60.00,WinterDesignDay
10,846498.3502137747
46,0.0
70,0.0
345,0.0
992,0.0
1016,0.0
1496,969662883.264848
1532,0.0
1556,0.0
2227,846199.5528514609
2365,833470.2924393178
4121,298.79736231402986
4133,40.22252245508139
4170,146.49394504991597
4230,968829412.9724085
4243,0.0
4354,0.0
4480,0.0
2,1, 1,21, 0,23, 0.00,60.00,WinterDesignDay
10,72187.37728137274
46,0.0
70,0.0
345,0.0
992,0.0
1016,0.0
1496,422203660.35822167
1532,0.0
1556,0.0
2227,72000.0
2365,773376.8982199011
4121,187.37728137266803
4133,40.23547403260487
4170,146.49394504991597
4230,421430283.4600017
4243,0.0
4354,0.0
4480,0.0
2,1, 1,21, 0,24, 0.00,60.00,WinterDesignDay
10,72202.6504491271
46,0.0
70,0.0
345,0.0
992,0.0
1016,0.0
1496,532041695.0802884
1532,0.0
1556,0.0
2227,72000.0
2365,639737.7836981767
4121,202.65044912702795
4133,40.353926403266829
4170,146.49394504991597
4230,531401957.2965902
4243,0.0
4354,0.0
4480,0.0
1,FRESNO-YOSEMITE-INTL-AP AUG CLG 0.4% CONDNS DB=>MCWB,  36.78,-119.72,  -8.00, 102.00
2,1, 8,21, 0, 1, 0.00,60.00,SummerDesignDay
10,721481198.1994252
46,249737579.99999974
70,96701579.99999997
345,153035999.9999997
992,231449399.99999977
1016,231449399.99999977
1496,63641142.94326839
1532,57764642.17263899
1556,57764642.17263899
2227,17242922.61595171
2365,5876500.7706293989
4121,246.64032258619467
4133,40.32833490284631
4170,146.49394504991597
4230,0.0
4243,0.0
4354,223051048.943151
4480,0.0
2,1, 8,21, 0, 2, 0.00,60.00,SummerDesignDay
10,709580516.0806097
46,249737579.99999974
70,96701579.99999997
345,153035999.9999997
992,231449399.99999977
1016,231449399.99999977
1496,63802237.40242027
1532,57764642.17263899
1556,57764642.17263899
2227,17242235.587752299
2365,6037595.229781272
4121,244.26940787961005
4133,40.34481559533175
4170,146.49394504991597
4230,0.0
4243,0.0
4354,211151056.22344957
4480,0.0
2,1, 8,21, 0, 3, 0.00,60.00,SummerDesignDay
10,701459601.954474
46,249737579.99999974
70,96701579.99999997
345,153035999.9999997
992,231449399.99999977
1016,231449399.99999977
1496,63858432.131865728