Program Version,EnergyPlus, Version 9.0.1-bb7ca4f0da, YMD=2019.12.17 18:13
1,5,Environment Title[],Latitude[deg],Longitude[deg],Time Zone[],Elevation[m]
2,8,Day of Simulation[],Month[],Day of Month[],DST Indicator[1=yes 0=no],Hour[],StartMinute[],EndMinute[],DayType
3,5,Cumulative Day of Simulation[],Month[],Day of Month[],DST Indicator[1=yes 0=no],DayType  ! When Daily Report Variables Requested
4,2,Cumulative Days of Simulation[],Month[]  ! When Monthly Report Variables Requested
5,1,Cumulative Days of Simulation[] ! When Run Period Report Variables Requested
6,1,Calendar Year of Simulation[] ! When Annual Report Variables Requested
7,1,Environment,Site Outdoor Air Drybulb Temperature [C] !TimeStep
4438,1,BASE BLR,Boiler Heating Rate [W] !Hourly
End of Data Dictionary
1,FRESNO-YOSEMITE-INTL-AP ANN CLG 0.4% CONDNS DB=>MCWB,  36.78,-119.72,  -8.00, 102.00
2,1, 7,21, 0, 1, 0.00,15.00,SummerDesignDay
7,25.872999999999999
2,1, 7,21, 0, 1,15.00,30.00,SummerDesignDay
7,25.63
2,1, 7,21, 0, 1,30.00,45.00,SummerDesignDay
7,25.387
2,1, 7,21, 0, 1,45.00,60.00,SummerDesignDay
7,25.144
2,1, 7,21, 0, 1, 0.00,60.00,SummerDesignDay
4438,0.0
2,1, 7,21, 0, 2, 0.00,15.00,SummerDesignDay
7,24.982
2,1, 7,21, 0, 2,15.00,30.00,SummerDesignDay
7,24.82
2,1, 7,21, 0, 2,30.00,45.00,SummerDesignDay
7,24.658
2,1, 7,21, 0, 2,45.00,60.00,SummerDesignDay
7,24.496
2,1, 7,21, 0, 2, 0.00,60.00,SummerDesignDay
4438,0.0
2,1, 7,21, 0, 3, 0.00,15.00,SummerDesignDay
7,24.374499999999999
2,1, 7,21, 0, 3,15.00,30.00,SummerDesignDay
7,24.253
2,1, 7,21, 0, 3,30.00,45.00,SummerDesignDay
7,24.131500000000004
2,1, 7,21, 0, 3,45.00,60.00,SummerDesignDay
7,24.009999999999999
2,1, 7,21, 0, 3, 0.00,60.00,SummerDesignDay
4438,0.0
2,1, 7,21, 0, 4, 0.00,15.00,SummerDesignDay
7,23.8885
2,1, 7,21, 0, 4,15.00,30.00,SummerDesignDay
7,23.767
2,1, 7,21, 0, 4,30.00,45.00,SummerDesignDay
7,23.6455
2,1, 7,21, 0, 4,45.00,60.00,SummerDesignDay
7,23.524
2,1, 7,21, 0, 4, 0.00,60.00,SummerDesignDay
4438,0.0
2,1, 7,21, 0, 5, 0.00,15.00,SummerDesignDay
7,23.442999999999999
2,1, 7,21, 0, 5,15.00,30.00,SummerDesignDay
7,23.362
2,1, 7,21, 0, 5,30.00,45.00,SummerDesignDay
7,23.281
2,1, 7,21, 0, 5,45.00,60.00,SummerDesignDay
7,23.2
2,1, 7,21, 0, 5, 0.00,60.00,SummerDesignDay
4438,0.0
2,1, 7,21, 0, 6, 0.00,15.00,SummerDesignDay
7,23.281
2,1, 7,21, 0, 6,15.00,30.00,SummerDesignDay
7,23.362
2,1, 7,21, 0, 6,30.00,45.00,SummerDesignDay
7,23.442999999999999
2,1, 7,21, 0, 6,45.00,60.00,SummerDesignDay
7,23.524
2,1, 7,21, 0, 6, 0.00,60.00,SummerDesignDay
4438,0.0
2,1, 7,21, 0, 7, 0.00,15.00,SummerDesignDay
7,23.807499999999999
2,1, 7,21, 0, 7,15.00,30.00,SummerDesignDay
7,24.090999999999999
2,1, 7,21, 0, 7,30.00,45.00,SummerDesignDay
7,24.374499999999999
2,1, 7,21, 0, 7,45.00,60.00,SummerDesignDay
7,24.658
2,1, 7,21, 0, 7, 0.00,60.00,SummerDesignDay
4438,0.0
2,1, 7,21, 0, 8, 0.00,15.00,SummerDesignDay
7,25.3465
2,1, 7,21, 0, 8,15.00,30.00,SummerDesignDay
7,26.035
2,1, 7,21, 0, 8,30.00,45.00,SummerDesignDay
7,26.7235
2,1, 7,21, 0, 8,45.00,60.00,SummerDesignDay
7,27.412
2,1, 7,21, 0, 8, 0.00,60.00,SummerDesignDay
4438,0.0
2,1, 7,21, 0, 9, 0.00,15.00,SummerDesignDay
7,28.1815
2,1, 7,21, 0, 9,15.00,30.00,SummerDesignDay
7,28.951
2,1, 7,21, 0, 9,30.00,45.00,SummerDesignDay
7,29.720499999999999
2,1, 7,21, 0, 9,45.00,60.00,SummerDesignDay
7,30.49
2,1, 7,21, 0, 9, 0.00,60.00,SummerDesignDay
4438,0.0
2,1, 7,21, 0,10, 0.00,15.00,SummerDesignDay
7,31.1785
2,1, 7,21, 0,10,15.00,30.00,SummerDesignDay
7,31.866999999999999
2,1, 7,21, 0,10,30.00,45.00,SummerDesignDay
7,32.555499999999998
2,1, 7,21, 0,10,45.00,60.00,SummerDesignDay
7,33.244
2,1, 7,21, 0,10, 0.00,60.00,SummerDesignDay
4438,0.0
2,1, 7,21, 0,11, 0.00,15.00,SummerDesignDay
7,33.8515
2,1, 7,21, 0,11,15.00,30.00,SummerDesignDay
7,34.458999999999999
2,1, 7,21, 0,11,30.00,45.00,SummerDesignDay
7,35.0665
2,1, 7,21, 0,11,45.00,60.00,SummerDesignDay
7,35.674
2,1, 7,21, 0,11, 0.00,60.00,SummerDesignDay
4438,0.0
2,1, 7,21, 0,12, 0.00,15.00,SummerDesignDay
7,36.079
2,1, 7,21, 0,12,15.00,30.00,SummerDesignDay
7,36.484
2,1, 7,21, 0,12,30.00,45.00,SummerDesignDay
7,36.888999999999999
2,1, 7,21, 0,12,45.00,60.00,SummerDesignDay
7,37.294
2,1, 7,21, 0,12, 0.00,60.00,SummerDesignDay
4438,0.0
2,1, 7,21, 0,13, 0.00,15.00,SummerDesignDay
7,37.617999999999998
2,1, 7,21, 0,13,15.00,30.00,SummerDesignDay
7,37.942
2,1, 7,21, 0,13,30.00,45.00,SummerDesignDay
7,38.266
2,1, 7,21, 0,13,45.00,60.00,SummerDesignDay
7,38.589999999999999
2,1, 7,21, 0,13, 0.00,60.00,SummerDesignDay
4438,0.0
2,1, 7,21, 0,14, 0.00,15.00,SummerDesignDay
7,38.7925
2,1, 7,21, 0,14,15.00,30.00,SummerDesignDay
7,38.995
2,1, 7,21, 0,14,30.00,45.00,SummerDesignDay
7,39.1975
2,1, 7,21, 0,14,45.00,60.00,SummerDesignDay
7,39.4
2,1, 7,21, 0,14, 0.00,60.00,SummerDesignDay
4438,0.0
2,1, 7,21, 0,15, 0.00,15.00,SummerDesignDay
7,39.4
2,1, 7,21, 0,15,15.00,30.00,SummerDesignDay
7,39.4
2,1, 7,21, 0,15,30.00,45.00,SummerDesignDay
7,39.4
2,1, 7,21, 0,15,45.00,60.00,SummerDesignDay
7,39.4
2,1, 7,21, 0,15, 0.00,60.00,SummerDesignDay
4438,0.0
2,1, 7,21, 0,16, 0.00,15.00,SummerDesignDay
7,39.157
2,1, 7,21, 0,16,15.00,30.00,SummerDesignDay
7,38.914
2,1, 7,21, 0,16,30.00,45.00,SummerDesignDay
7,38.671
2,1, 7,21, 0,16,45.00,60.00,SummerDesignDay
7,38.428
2,1, 7,21, 0,16, 0.00,60.00,SummerDesignDay
4438,0.0
2,1, 7,21, 0,17, 0.00,15.00,SummerDesignDay
7,38.104
2,1, 7,21, 0,17,15.00,30.00,SummerDesignDay
7,37.78
2,1, 7,21, 0,17,30.00,45.00,SummerDesignDay
7,37.455999999999999
2,1, 7,21, 0,17,45.00,60.00,SummerDesignDay
7,37.132
2,1, 7,21, 0,17, 0.00,60.00,SummerDesignDay
4438,0.0
2,1, 7,21, 0,18, 0.00,15.00,SummerDesignDay
7,36.727
2,1, 7,21, 0,18,15.00,30.00,SummerDesignDay
7,36.321999999999999
2,1, 7,21, 0,18,30.00,45.00,SummerDesignDay
7,35.917
2,1, 7,21, 0,18,45.00,60.00,SummerDesignDay
7,35.512
2,1, 7,21, 0,18, 0.00,60.00,SummerDesignDay
4438,0.0
2,1, 7,21, 0,19, 0.00,15.00,SummerDesignDay
7,34.9045
2,1, 7,21, 0,19,15.00,30.00,SummerDesignDay
7,34.297
2,1, 7,21, 0,19,30.00,45.00,SummerDesignDay
7,33.689499999999998
2,1, 7,21, 0,19,45.00,60.00,SummerDesignDay
7,33.082
2,1, 7,21, 0,19, 0.00,60.00,SummerDesignDay
4438,0.0
2,1, 7,21, 0,20, 0.00,15.00,SummerDesignDay
7,32.6365
2,1, 7,21, 0,20,15.00,30.00,SummerDesignDay
7,32.191
2,1, 7,21, 0,20,30.00,45.00,SummerDesignDay
7,31.7455
2,1, 7,21, 0,20,45.00,60.00,SummerDesignDay
7,31.299999999999998
2,1, 7,21, 0,20, 0.00,60.00,SummerDesignDay
4438,0.0
2,1, 7,21, 0,21, 0.00,15.00,SummerDesignDay
7,30.935499999999999
2,1, 7,21, 0,21,15.00,30.00,SummerDesignDay
7,30.570999999999999
2,1, 7,21, 0,21,30.00,45.00,SummerDesignDay
7,30.2065
2,1, 7,21, 0,21,45.00,60.00,SummerDesignDay
7,29.842
2,1, 7,21, 0,21, 0.00,60.00,SummerDesignDay
4438,0.0
2,1, 7,21, 0,22, 0.00,15.00,SummerDesignDay
7,29.4775
2,1, 7,21, 0,22,15.00,30.00,SummerDesignDay
7,29.113
2,1, 7,21, 0,22,30.00,45.00,SummerDesignDay
7,28.7485
2,1, 7,21, 0,22,45.00,60.00,SummerDesignDay
7,28.384
2,1, 7,21, 0,22, 0.00,60.00,SummerDesignDay
4438,0.0
2,1, 7,21, 0,23, 0.00,15.00,SummerDesignDay
7,28.100499999999998
2,1, 7,21, 0,23,15.00,30.00,SummerDesignDay
7,27.817
2,1, 7,21, 0,23,30.00,45.00,SummerDesignDay
7,27.533499999999998
2,1, 7,21, 0,23,45.00,60.00,SummerDesignDay
7,27.25
2,1, 7,21, 0,23, 0.00,60.00,SummerDesignDay
4438,0.0
2,1, 7,21, 0,24, 0.00,15.00,SummerDesignDay
7,26.9665
2,1, 7,21, 0,24,15.00,30.00,SummerDesignDay
7,26.683
2,1, 7,21, 0,24,30.00,45.00,SummerDesignDay
7,26.3995
2,1, 7,21, 0,24,45.00,60.00,SummerDesignDay
7,26.116
2,1, 7,21, 0,24, 0.00,60.00,SummerDesignDay
4438,0.0
1,FRESNO-YOSEMITE-INTL-AP ANN CLG 0.4% CONDNS DP=>MCDB,  36.78,-119.72,  -8.00, 102.00
2,1, 7,21, 0, 1, 0.00,15.00,SummerDesignDay
7,16.173000000000003
2,1, 7,21, 0, 1,15.00,30.00,SummerDesignDay
7,15.93
2,1, 7,21, 0, 1,30.00,45.00,SummerDesignDay
7,15.687
2,1, 7,21, 0, 1,45.00,60.00,SummerDesignDay
7,15.443999999999999
2,1, 7,21, 0, 1, 0.00,60.00,SummerDesignDay
4438,0.0
2,1, 7,21, 0, 2, 0.00,15.00,SummerDesignDay
7,15.282
2,1, 7,21, 0, 2,15.00,30.00,SummerDesignDay
7,15.12
2,1, 7,21, 0, 2,30.00,45.00,SummerDesignDay
7,14.958
2,1, 7,21, 0, 2,45.00,60.00,SummerDesignDay
7,14.796
2,1, 7,21, 0, 2, 0.00,60.00,SummerDesignDay
4438,0.0
2,1, 7,21, 0, 3, 0.00,15.00,SummerDesignDay
7,14.6745
2,1, 7,21, 0, 3,15.00,30.00,SummerDesignDay
7,14.552999999999999
2,1, 7,21, 0, 3,30.00,45.00,SummerDesignDay
7,14.431500000000002
2,1, 7,21, 0, 3,45.00,60.00,SummerDesignDay
7,14.31
2,1, 7,21, 0, 3, 0.00,60.00,SummerDesignDay
4438,0.0
2,1, 7,21, 0, 4, 0.00,15.00,SummerDesignDay
7,14.188500000000002
2,1, 7,21, 0, 4,15.00,30.00,SummerDesignDay
7,14.067
2,1, 7,21, 0, 4,30.00,45.00,SummerDesignDay
7,13.945500000000001
2,1, 7,21, 0, 4,45.00,60.00,SummerDesignDay
7,13.824
2,1, 7,21, 0, 4, 0.00,60.00,SummerDesignDay
4438,0.0
2,1, 7,21, 0, 5, 0.00,15.00,SummerDesignDay
7,13.743
2,1, 7,21, 0, 5,15.00,30.00,SummerDesignDay
7,13.661999999999999
2,1, 7,21, 0, 5,30.00,45.00,SummerDesignDay
7,13.581
2,1, 7,21, 0, 5,45.00,60.00,SummerDesignDay
7,13.5
2,1, 7,21, 0, 5, 0.00,60.00,SummerDesignDay
4438,0.0
2,1, 7,21, 0, 6, 0.00,15.00,SummerDesignDay
7,13.581
2,1, 7,21, 0, 6,15.00,30.00,SummerDesignDay
7,13.661999999999999
2,1, 7,21, 0, 6,30.00,45.00,SummerDesignDay
7,13.743
2,1, 7,21, 0, 6,45.00,60.00,SummerDesignDay
7,13.824
2,1, 7,21, 0, 6, 0.00,60.00,SummerDesignDay
4438,0.0
2,1, 7,21, 0, 7, 0.00,15.00,SummerDesignDay
7,14.1075
2,1, 7,21, 0, 7,15.00,30.00,SummerDesignDay
7,14.390999999999999
2,1, 7,21, 0, 7,30.00,45.00,SummerDesignDay
7,14.6745
2,1, 7,21, 0, 7,45.00,60.00,SummerDesignDay
7,14.958
2,1, 7,21, 0, 7, 0.00,60.00,SummerDesignDay
4438,7.982784624676317
2,1, 7,21, 0, 8, 0.00,15.00,SummerDesignDay
7,15.646500000000002
2,1, 7,21, 0, 8,15.00,30.00,SummerDesignDay
7,16.335
2,1, 7,21, 0, 8,30.00,45.00,SummerDesignDay
7,17.0235
2,1, 7,21, 0, 8,45.00,60.00,SummerDesignDay
7,17.712
2,1, 7,21, 0, 8, 0.00,60.00,SummerDesignDay
4438,0.0
2,1, 7,21, 0, 9, 0.00,15.00,SummerDesignDay
7,18.481500000000005
2,1, 7,21, 0, 9,15.00,30.00,SummerDesignDay
7,19.250999999999999
2,1, 7,21, 0, 9,30.00,45.00,SummerDesignDay
7,20.0205
2,1, 7,21, 0, 9,45.00,60.00,SummerDesignDay
7,20.79
2,1, 7,21, 0, 9, 0.00,60.00,SummerDesignDay
4438,0.0
2,1, 7,21, 0,10, 0.00,15.00,SummerDesignDay
7,21.478499999999998
2,1, 7,21, 0,10,15.00,30.00,SummerDesignDay
7,22.166999999999999
2,1, 7,21, 0,10,30.00,45.00,SummerDesignDay
7,22.8555
2,1, 7,21, 0,10,45.00,60.00,SummerDesignDay
7,23.544
2,1, 7,21, 0,10, 0.00,60.00,SummerDesignDay
4438,0.0
2,1, 7,21, 0,11, 0.00,15.00,SummerDesignDay
7,24.1515
2,1, 7,21, 0,11,15.00,30.00,SummerDesignDay
7,24.759
2,1, 7,21, 0,11,30.00,45.00,SummerDesignDay
7,25.3665
2,1, 7,21, 0,11,45.00,60.00,SummerDesignDay
7,25.974
2,1, 7,21, 0,11, 0.00,60.00,SummerDesignDay
4438,0.0
2,1, 7,21, 0,12, 0.00,15.00,SummerDesignDay
7,26.378999999999999
2,1, 7,21, 0,12,15.00,30.00,SummerDesignDay
7,26.784
2,1, 7,21, 0,12,30.00,45.00,SummerDesignDay
7,27.189
2,1, 7,21, 0,12,45.00,60.00,SummerDesignDay
7,27.594
2,1, 7,21, 0,12, 0.00,60.00,SummerDesignDay
4438,0.0
2,1, 7,21, 0,13, 0.00,15.00,SummerDesignDay
7,27.918
2,1, 7,21, 0,13,15.00,30.00,SummerDesignDay
7,28.242
2,1, 7,21, 0,13,30.00,45.00,SummerDesignDay
7,28.566
2,1, 7,21, 0,13,45.00,60.00,SummerDesignDay
7,28.89
2,1, 7,21, 0,13, 0.00,60.00,SummerDesignDay
4438,0.0
2,1, 7,21, 0,14, 0.00,15.00,SummerDesignDay
7,29.092499999999999
2,1, 7,21, 0,14,15.00,30.00,SummerDesignDay
7,29.294999999999999
2,1, 7,21, 0,14,30.00,45.00,SummerDesignDay
7,29.4975
2,1, 7,21, 0,14,45.00,60.00,SummerDesignDay
7,29.7
2,1, 7,21, 0,14, 0.00,60.00,SummerDesignDay
4438,0.0
2,1, 7,21, 0,15, 0.00,15.00,SummerDesignDay
7,29.7
2,1, 7,21, 0,15,15.00,30.00,SummerDesignDay
7,29.7
2,1, 7,21, 0,15,30.00,45.00,SummerDesignDay
7,29.7
2,1, 7,21, 0,15,45.00,60.00,SummerDesignDay
7,29.7
2,1, 7,21, 0,15, 0.00,60.00,SummerDesignDay
4438,0.0
2,1, 7,21, 0,16, 0.00,15.00,SummerDesignDay
7,29.457
2,1, 7,21, 0,16,15.00,30.00,SummerDesignDay
7,29.214
2,1, 7,21, 0,16,30.00,45.00,SummerDesignDay
7,28.971
2,1, 7,21, 0,16,45.00,60.00,SummerDesignDay
7,28.727999999999999
2,1, 7,21, 0,16, 0.00,60.00,SummerDesignDay
4438,0.0
2,1, 7,21, 0,17, 0.00,15.00,SummerDesignDay
7,28.404
2,1, 7,21, 0,17,15.00,30.00,SummerDesignDay
7,28.08
2,1, 7,21, 0,17,30.00,45.00,SummerDesignDay
7,27.756
2,1, 7,21, 0,17,45.00,60.00,SummerDesignDay
7,27.432
2,1, 7,21, 0,17, 0.00,60.00,SummerDesignDay
4438,0.0
2,1, 7,21, 0,18, 0.00,15.00,SummerDesignDay
7,27.027
2,1, 7,21, 0,18,15.00,30.00,SummerDesignDay
7,26.622
2,1, 7,21, 0,18,30.00,45.00,SummerDesignDay
7,26.217
2,1, 7,21, 0,18,45.00,60.00,SummerDesignDay
7,25.811999999999999
2,1, 7,21, 0,18, 0.00,60.00,SummerDesignDay
4438,0.0
2,1, 7,21, 0,19, 0.00,15.00,SummerDesignDay
7,25.2045
2,1, 7,21, 0,19,15.00,30.00,SummerDesignDay
7,24.597
2,1, 7,21, 0,19,30.00,45.00,SummerDesignDay
7,23.9895
2,1, 7,21, 0,19,45.00,60.00,SummerDesignDay
7,23.381999999999999
2,1, 7,21, 0,19, 0.00,60.00,SummerDesignDay
4438,0.0
2,1, 7,21, 0,20, 0.00,15.00,SummerDesignDay
7,22.9365
2,1, 7,21, 0,20,15.00,30.00,SummerDesignDay
7,22.491
2,1, 7,21, 0,20,30.00,45.00,SummerDesignDay
7,22.045499999999998
2,1, 7,21, 0,20,45.00,60.00,SummerDesignDay
7,21.6
2,1, 7,21, 0,20, 0.00,60.00,SummerDesignDay
4438,7.5039153750272329
2,1, 7,21, 0,21, 0.00,15.00,SummerDesignDay
7,21.235500000000003
2,1, 7,21, 0,21,15.00,30.00,SummerDesignDay
7,20.871000000000003
2,1, 7,21, 0,21,30.00,45.00,SummerDesignDay
7,20.5065
2,1, 7,21, 0,21,45.00,60.00,SummerDesignDay
7,20.142
2,1, 7,21, 0,21, 0.00,60.00,SummerDesignDay
4438,19.527276933836807
2,1, 7,21, 0,22, 0.00,15.00,SummerDesignDay
7,19.7775
2,1, 7,21, 0,22,15.00,30.00,SummerDesignDay
7,19.413
2,1, 7,21, 0,22,30.00,45.00,SummerDesignDay
7,19.0485
2,1, 7,21, 0,22,45.00,60.00,SummerDesignDay
7,18.683999999999999
2,1, 7,21, 0,22, 0.00,60.00,SummerDesignDay
4438,0.0
2,1, 7,21, 0,23, 0.00,15.00,SummerDesignDay
7,18.4005
2,1, 7,21, 0,23,15.00,30.00,SummerDesignDay
7,18.116999999999999
2,1, 7,21, 0,23,30.00,45.00,SummerDesignDay
7,17.8335
2,1, 7,21, 0,23,45.00,60.00,SummerDesignDay
7,17.55
2,1, 7,21, 0,23, 0.00,60.00,SummerDesignDay
4438,0.0
2,1, 7,21, 0,24, 0.00,15.00,SummerDesignDay
7,17.2665
2,1, 7,21, 0,24,15.00,30.00,SummerDesignDay
7,16.983
2,1, 7,21, 0,24,30.00,45.00,SummerDesignDay
7,16.6995
2,1, 7,21, 0,24,45.00,60.00,SummerDesignDay
7,16.416
2,1, 7,21, 0,24, 0.00,60.00,SummerDesignDay
4438,0.0
1,FRESNO-YOSEMITE-INTL-AP ANN HTG 99.6% CONDNS DB,  36.78,-119.72,  -8.00, 102.00
2,1, 1,21, 0, 1, 0.00,15.00,WinterDesignDay
7,0.0
2,1, 1,21, 0, 1,15.00,30.00,WinterDesignDay
7,0.0
2,1, 1,21, 0, 1,30.00,45.00,WinterDesignDay
7,0.0
2,1, 1,21, 0, 1,45.00,60.00,WinterDesignDay
7,0.0
2,1, 1,21, 0, 1, 0.00,60.00,WinterDesignDay
4438,66739.10158275292
2,1, 1,21, 0, 2, 0.00,15.00,WinterDesignDay
7,0.0
2,1, 1,21, 0, 2,15.00,30.00,WinterDesignDay
7,0.0
2,1, 1,21, 0, 2,30.00,45.00,WinterDesignDay
7,0.0
2,1, 1,21, 0, 2,45.00,60.00,WinterDesignDay
7,0.0
2,1, 1,21, 0, 2, 0.00,60.00,WinterDesignDay
4438,69107.29595388424
2,1, 1,21, 0, 3, 0.00,15.00,WinterDesignDay
7,0.0
2,1, 1,21, 0, 3,15.00,30.00,WinterDesignDay
7,0.0
2,1, 1,21, 0, 3,30.00,45.00,WinterDesignDay
7,0.0
2,1, 1,21, 0, 3,45.00,60.00,WinterDesignDay
7,0.0
2,1, 1,21, 0, 3, 0.00,60.00,WinterDesignDay
4438,72258.27285913757
2,1, 1,21, 0, 4, 0.00,15.00,WinterDesignDay
7,0.0
2,1, 1,21, 0, 4,15.00,30.00,WinterDesignDay
7,0.0
2,1, 1,21, 0, 4,30.00,45.00,WinterDesignDay
7,0.0
2,1, 1,21, 0, 4,45.00,60.00,WinterDesignDay
7,0.0
2,1, 1,21, 0, 4, 0.00,60.00,WinterDesignDay
4438,76545.73828884187
2,1, 1,21, 0, 5, 0.00,15.00,WinterDesignDay
7,0.0
2,1, 1,21, 0, 5,15.00,30.00,WinterDesignDay
7,0.0
2,1, 1,21, 0, 5,30.00,45.00,WinterDesignDay
7,0.0
2,1, 1,21, 0, 5,45.00,60.00,WinterDesignDay
7,0.0
2,1, 1,21, 0, 5, 0.00,60.00,WinterDesignDay
4438,79680.51868715167
2,1, 1,21, 0, 6, 0.00,15.00,WinterDesignDay
7,0.0
2,1, 1,21, 0, 6,15.00,30.00,WinterDesignDay
7,0.0
2,1, 1,21, 0, 6,30.00,45.00,WinterDesignDay
7,0.0
2,1, 1,21, 0, 6,45.00,60.00,WinterDesignDay
7,0.0
2,1, 1,21, 0, 6, 0.00,60.00,WinterDesignDay
4438,126313.92025198837
2,1, 1,21, 0, 7, 0.00,15.00,WinterDesignDay
7,0.0
2,1, 1,21, 0, 7,15.00,30.00,WinterDesignDay
7,0.0
2,1, 1,21, 0, 7,30.00,45.00,WinterDesignDay
7,0.0
2,1, 1,21, 0, 7,45.00,60.00,WinterDesignDay
7,0.0
2,1, 1,21, 0, 7, 0.00,60.00,WinterDesignDay
4438,182517.0056831027
2,1, 1,21, 0, 8, 0.00,15.00,WinterDesignDay
7,0.0
2,1, 1,21, 0, 8,15.00,30.00,WinterDesignDay
7,0.0
2,1, 1,21, 0, 8,30.00,45.00,WinterDesignDay
7,0.0
2,1, 1,21, 0, 8,45.00,60.00,WinterDesignDay
7,0.0
2,1, 1,21, 0, 8, 0.00,60.00,WinterDesignDay
4438,156118.10202467675
2,1, 1,21, 0, 9, 0.00,15.00,WinterDesignDay
7,0.0
2,1, 1,21, 0, 9,15.00,30.00,WinterDesignDay
7,0.0
2,1, 1,21, 0, 9,30.00,45.00,WinterDesignDay
7,0.0
2,1, 1,21, 0, 9,45.00,60.00,WinterDesignDay
7,0.0
2,1, 1,21, 0, 9, 0.00,60.00,WinterDesignDay
4438,139493.65878304799
2,1, 1,21, 0,10, 0.00,15.00,WinterDesignDay
7,0.0
2,1, 1,21, 0,10,15.00,30.00,WinterDesignDay
7,0.0
2,1, 1,21, 0,10,30.00,45.00,WinterDesignDay
7,0.0
2,1, 1,21, 0,10,45.00,60.00,WinterDesignDay
7,0.0
2,1, 1,21, 0,10, 0.00,60.00,WinterDesignDay
4438,132877.44233478869
2,1, 1,21, 0,11, 0.00,15.00,WinterDesignDay
7,0.0
2,1, 1,21, 0,11,15.00,30.00,WinterDesignDay
7,0.0
2,1, 1,21, 0,11,30.00,45.00,WinterDesignDay
7,0.0
2,1, 1,21, 0,11,45.00,60.00,WinterDesignDay
7,0.0
2,1, 1,21, 0,11, 0.00,60.00,WinterDesignDay
4438,128754.23951167852
2,1, 1,21, 0,12, 0.00,15.00,WinterDesignDay
7,0.0
2,1, 1,21, 0,12,15.00,30.00,WinterDesignDay
7,0.0
2,1, 1,21, 0,12,30.00,45.00,WinterDesignDay
7,0.0
2,1, 1,21, 0,12,45.00,60.00,WinterDesignDay
7,0.0
2,1, 1,21, 0,12, 0.00,60.00,WinterDesignDay
4438,126308.07986562609
2,1, 1,21, 0,13, 0.00,15.00,WinterDesignDay
7,0.0
2,1, 1,21, 0,13,15.00,30.00,WinterDesignDay
7,0.0
2,1, 1,21, 0,13,30.00,45.00,WinterDesignDay
7,0.0
2,1, 1,21, 0,13,45.00,60.00,WinterDesignDay
7,0.0
2,1, 1,21, 0,13, 0.00,60.00,WinterDesignDay
4438,124658.01700930821
2,1, 1,21, 0,14, 0.00,15.00,WinterDesignDay
7,0.0
2,1, 1,21, 0,14,15.00,30.00,WinterDesignDay
7,0.0
2,1, 1,21, 0,14,30.00,45.00,WinterDesignDay
7,0.0
2,1, 1,21, 0,14,45.00,60.00,WinterDesignDay
7,0.0
2,1, 1,21, 0,14, 0.00,60.00,WinterDesignDay
4438,123491.08257821332
2,1, 1,21, 0,15, 0.00,15.00,WinterDesignDay
7,0.0
2,1, 1,21, 0,15,15.00,30.00,WinterDesignDay
7,0.0
2,1, 1,21, 0,15,30.00,45.00,WinterDesignDay
7,0.0
2,1, 1,21, 0,15,45.00,60.00,WinterDesignDay
7,0.0
2,1, 1,21, 0,15, 0.00,60.00,WinterDesignDay
4438,122681.97069026486
2,1, 1,21, 0,16, 0.00,15.00,WinterDesignDay
7,0.0
2,1, 1,21, 0,16,15.00,30.00,WinterDesignDay
7,0.0
2,1, 1,21, 0,16,30.00,45.00,WinterDesignDay
7,0.0
2,1, 1,21, 0,16,45.00,60.00,WinterDesignDay
7,0.0
2,1, 1,21, 0,16, 0.00,60.00,WinterDesignDay
4438,122089.31211030082
2,1, 1,21, 0,17, 0.00,15.00,WinterDesignDay
7,0.0
2,1, 1,21, 0,17,15.00,30.00,WinterDesignDay
7,0.0
2,1, 1,21, 0,17,30.00,45.00,WinterDesignDay
7,0.0
2,1, 1,21, 0,17,45.00,60.00,WinterDesignDay
7,0.0
2,1, 1,21, 0,17, 0.00,60.00,WinterDesignDay
4438,121701.47062260854
2,1, 1,21, 0,18, 0.00,15.00,WinterDesignDay
7,0.0
2,1, 1,21, 0,18,15.00,30.00,WinterDesignDay
7,0.0
2,1, 1,21, 0,18,30.00,45.00,WinterDesignDay
7,0.0
2,1, 1,21, 0,18,45.00,60.00,WinterDesignDay
7,0.0
2,1, 1,21, 0,18, 0.00,60.00,WinterDesignDay
4438,121369.33648871642
2,1, 1,21, 0,19, 0.00,15.00,WinterDesignDay
7,0.0
2,1, 1,21, 0,19,15.00,30.00,WinterDesignDay
7,0.0
2,1, 1,21, 0,19,30.00,45.00,WinterDesignDay
7,0.0
2,1, 1,21, 0,19,45.00,60.00,WinterDesignDay
7,0.0
2,1, 1,21, 0,19, 0.00,60.00,WinterDesignDay
4438,121151.94969195122
2,1, 1,21, 0,20, 0.00,15.00,WinterDesignDay
7,0.0
2,1, 1,21, 0,20,15.00,30.00,WinterDesignDay
7,0.0
2,1, 1,21, 0,20,30.00,45.00,WinterDesignDay
7,0.0
2,1, 1,21, 0,20,45.00,60.00,WinterDesignDay
7,0.0
2,1, 1,21, 0,20, 0.00,60.00,WinterDesignDay
4438,120993.34816069428
2,1, 1,21, 0,21, 0.00,15.00,WinterDesignDay
7,0.0
2,1, 1,21, 0,21,15.00,30.00,WinterDesignDay
7,0.0
2,1, 1,21, 0,21,30.00,45.00,WinterDesignDay
7,0.0
2,1, 1,21, 0,21,45.00,60.00,WinterDesignDay
7,0.0
2,1, 1,21, 0,21, 0.00,60.00,WinterDesignDay
4438,120861.96205507546
2,1, 1,21, 0,22, 0.00,15.00,WinterDesignDay
7,0.0
2,1, 1,21, 0,22,15.00,30.00,WinterDesignDay
7,0.0
2,1, 1,21, 0,22,30.00,45.00,WinterDesignDay
7,0.0
2,1, 1,21, 0,22,45.00,60.00,WinterDesignDay
7,0.0
2,1, 1,21, 0,22, 0.00,60.00,WinterDesignDay
4438,67588.18404049968
2,1, 1,21, 0,23, 0.00,15.00,WinterDesignDay
7,0.0
2,1, 1,21, 0,23,15.00,30.00,WinterDesignDay
7,0.0
2,1, 1,21, 0,23,30.00,45.00,WinterDesignDay
7,0.0
2,1, 1,21, 0,23,45.00,60.00,WinterDesignDay
7,0.0
2,1, 1,21, 0,23, 0.00,60.00,WinterDesignDay
4438,79697.45429114963
2,1, 1,21, 0,24, 0.00,15.00,WinterDesignDay
7,0.0
2,1, 1,21, 0,24,15.00,30.00,WinterDesignDay
7,0.0
2,1, 1,21, 0,24,30.00,45.00,WinterDesignDay
7,0.0
2,1, 1,21, 0,24,45.00,60.00,WinterDesignDay
7,0.0
2,1, 1,21, 0,24, 0.00,60.00,WinterDesignDay
4438,86863.06613643475
1,FRESNO-YOSEMITE-INTL-AP AUG CLG 0.4% CONDNS DB=>MCWB,  36.78,-119.72,  -8.00, 102.00
2,1, 8,21, 0, 1, 0.00,15.00,SummerDesignDay
7,27.306
2,1, 8,21, 0, 1,15.00,30.00,SummerDesignDay
7,27.060000000000004
2,1, 8,21, 0, 1,30.00,45.00,SummerDesignDay
7,26.814
2,1, 8,21, 0, 1,45.00,60.00,SummerDesignDay
7,26.568
2,1, 8,21, 0, 1, 0.00,60.00,SummerDesignDay
4438,0.0
2,1, 8,21, 0, 2, 0.00,15.00,SummerDesignDay
7,26.404000000000005
2,1, 8,21, 0, 2,15.00,30.00,SummerDesignDay
7,26.240000000000003
2,1, 8,21, 0, 2,30.00,45.00,SummerDesignDay
7,26.076
2,1, 8,21, 0, 2,45.00,60.00,SummerDesignDay
7,25.912
2,1, 8,21, 0, 2, 0.00,60.00,SummerDesignDay
4438,0.0
2,1, 8,21, 0, 3, 0.00,15.00,SummerDesignDay
7,25.789
2,1, 8,21, 0, 3,15.00,30.00,SummerDesignDay
7,25.666
2,1, 8,21, 0, 3,30.00,45.00,SummerDesignDay
7,25.543000000000004
2,1, 8,21, 0, 3,45.00,60.00,SummerDesignDay
7,25.42
2,1, 8,21, 0, 3, 0.00,60.00,SummerDesignDay
4438,0.0
2,1, 8,21, 0, 4, 0.00,15.00,SummerDesignDay
7,25.297000000000005
2,1, 8,21, 0, 4,15.00,30.00,SummerDesignDay
7,25.174
2,1, 8,21, 0, 4,30.00,45.00,SummerDesignDay
7,25.051000000000003
2,1, 8,21, 0, 4,45.00,60.00,SummerDesignDay
7,24.928
2,1, 8,21, 0, 4, 0.00,60.00,SummerDesignDay
4438,0.0
2,1, 8,21, 0, 5, 0.00,15.00,SummerDesignDay
7,24.846
2,1, 8,21, 0, 5,15.00,30.00,SummerDesignDay
7,24.764000000000004
2,1, 8,21, 0, 5,30.00,45.00,SummerDesignDay
7,24.682000000000003
2,1, 8,21, 0, 5,45.00,60.00,SummerDesignDay
7,24.6
2,1, 8,21, 0, 5, 0.00,60.00,SummerDesignDay
4438,0.0
2,1, 8,21, 0, 6, 0.00,15.00,SummerDesignDay
7,24.682000000000003
2,1, 8,21, 0, 6,15.00,30.00,SummerDesignDay
7,24.764000000000004
2,1, 8,21, 0, 6,30.00,45.00,SummerDesignDay
7,24.846
2,1, 8,21, 0, 6,45.00,60.00,SummerDesignDay
7,24.928
2,1, 8,21, 0, 6, 0.00,60.00,SummerDesignDay
4438,0.0
2,1, 8,21, 0, 7, 0.00,15.00,SummerDesignDay
7,25.215000000000005
2,1, 8,21, 0, 7,15.00,30.00,SummerDesignDay
7,25.502000000000004
2,1, 8,21, 0, 7,30.00,45.00,SummerDesignDay
7,25.789
2,1, 8,21, 0, 7,45.00,60.00,SummerDesignDay
7,26.076
2,1, 8,21, 0, 7, 0.00,60.00,SummerDesignDay
4438,0.0
2,1, 8,21, 0, 8, 0.00,15.00,SummerDesignDay
7,26.773000000000005
2,1, 8,21, 0, 8,15.00,30.00,SummerDesignDay
7,27.470000000000004
2,1, 8,21, 0, 8,30.00,45.00,SummerDesignDay
7,28.167
2,1, 8,21, 0, 8,45.00,60.00,SummerDesignDay
7,28.864
2,1, 8,21, 0, 8, 0.00,60.00,SummerDesignDay
4438,0.0
2,1, 8,21, 0, 9, 0.00,15.00,SummerDesignDay
7,29.643
2,1, 8,21, 0, 9,15.00,30.00,SummerDesignDay
7,30.422
2,1, 8,21, 0, 9,30.00,45.00,SummerDesignDay
7,31.201
2,1, 8,21, 0, 9,45.00,60.00,SummerDesignDay
7,31.98
2,1, 8,21, 0, 9, 0.00,60.00,SummerDesignDay
4438,0.0
2,1, 8,21, 0,10, 0.00,15.00,SummerDesignDay
7,32.677
2,1, 8,21, 0,10,15.00,30.00,SummerDesignDay
7,33.374
2,1, 8,21, 0,10,30.00,45.00,SummerDesignDay
7,34.071
2,1, 8,21, 0,10,45.00,60.00,SummerDesignDay
7,34.768
2,1, 8,21, 0,10, 0.00,60.00,SummerDesignDay
4438,0.0
2,1, 8,21, 0,11, 0.00,15.00,SummerDesignDay
7,35.383
2,1, 8,21, 0,11,15.00,30.00,SummerDesignDay
7,35.998
2,1, 8,21, 0,11,30.00,45.00,SummerDesignDay
7,36.613
2,1, 8,21, 0,11,45.00,60.00,SummerDesignDay
7,37.228
2,1, 8,21, 0,11, 0.00,60.00,SummerDesignDay
4438,0.0
2,1, 8,21, 0,12, 0.00,15.00,SummerDesignDay
7,37.638
2,1, 8,21, 0,12,15.00,30.00,SummerDesignDay
7,38.048
2,1, 8,21, 0,12,30.00,45.00,SummerDesignDay
7,38.458
2,1, 8,21, 0,12,45.00,60.00,SummerDesignDay
7,38.868
2,1, 8,21, 0,12, 0.00,60.00,SummerDesignDay
4438,0.0
2,1, 8,21, 0,13, 0.00,15.00,SummerDesignDay
7,39.196
2,1, 8,21, 0,13,15.00,30.00,SummerDesignDay
7,39.524
2,1, 8,21, 0,13,30.00,45.00,SummerDesignDay
7,39.852
2,1, 8,21, 0,13,45.00,60.00,SummerDesignDay
7,40.18
2,1, 8,21, 0,13, 0.00,60.00,SummerDesignDay
4438,0.0
2,1, 8,21, 0,14, 0.00,15.00,SummerDesignDay
7,40.385
2,1, 8,21, 0,14,15.00,30.00,SummerDesignDay
7,40.59
2,1, 8,21, 0,14,30.00,45.00,SummerDesignDay
7,40.795
2,1, 8,21, 0,14,45.00,60.00,SummerDesignDay
7,41.0
2,1, 8,21, 0,14, 0.00,60.00,SummerDesignDay
4438,0.0
2,1, 8,21, 0,15, 0.00,15.00,SummerDesignDay
7,41.0
2,1, 8,21, 0,15,15.00,30.00,SummerDesignDay
7,41.0
2,1, 8,21, 0,15,30.00,45.00,SummerDesignDay
7,41.0
2,1, 8,21, 0,15,45.00,60.00,SummerDesignDay
7,41.0
2,1, 8,21, 0,15, 0.00,60.00,SummerDesignDay
4438,0.0
2,1, 8,21, 0,16, 0.00,15.00,SummerDesignDay
7,40.754
2,1, 8,21, 0,16,15.00,30.00,SummerDesignDay
7,40.508
2,1, 8,21, 0,16,30.00,45.00,SummerDesignDay
7,40.262
2,1, 8,21, 0,16,45.00,60.00,SummerDesignDay
7,40.016
2,1, 8,21, 0,16, 0.00,60.00,SummerDesignDay
4438,0.0
2,1, 8,21, 0,17, 0.00,15.00,SummerDesignDay
7,39.688
2,1, 8,21, 0,17,15.00,30.00,SummerDesignDay
7,39.36
2,1, 8,21, 0,17,30.00,45.00,SummerDesignDay
7,39.032
2,1, 8,21, 0,17,45.00,60.00,SummerDesignDay
7,38.704
2,1, 8,21, 0,17, 0.00,60.00,SummerDesignDay
4438,0.0
2,1, 8,21, 0,18, 0.00,15.00,SummerDesignDay
7,38.294
2,1, 8,21, 0,18,15.00,30.00,SummerDesignDay
7,37.884
2,1, 8,21, 0,18,30.00,45.00,SummerDesignDay
7,37.474000000000007
2,1, 8,21, 0,18,45.00,60.00,SummerDesignDay
7,37.064
2,1, 8,21, 0,18, 0.00,60.00,SummerDesignDay
4438,0.0
2,1, 8,21, 0,19, 0.00,15.00,SummerDesignDay
7,36.449
2,1, 8,21, 0,19,15.00,30.00,SummerDesignDay
7,35.834
2,1, 8,21, 0,19,30.00,45.00,SummerDesignDay
7,35.219
2,1, 8,21, 0,19,45.00,60.00,SummerDesignDay
7,34.604
2,1, 8,21, 0,19, 0.00,60.00,SummerDesignDay
4438,0.0
2,1, 8,21, 0,20, 0.00,15.00,SummerDesignDay
7,34.153
2,1, 8,21, 0,20,15.00,30.00,SummerDesignDay
7,33.702
2,1, 8,21, 0,20,30.00,45.00,SummerDesignDay
7,33.251
2,1, 8,21, 0,20,45.00,60.00,SummerDesignDay
7,32.8
2,1, 8,21, 0,20, 0.00,60.00,SummerDesignDay
4438,0.0
2,1, 8,21, 0,21, 0.00,15.00,SummerDesignDay
7,32.431
2,1, 8,21, 0,21,15.00,30.00,SummerDesignDay
7,32.062
2,1, 8,21, 0,21,30.00,45.00,SummerDesignDay
7,31.693
2,1, 8,21, 0,21,45.00,60.00,SummerDesignDay
7,31.324
2,1, 8,21, 0,21, 0.00,60.00,SummerDesignDay
4438,0.0
2,1, 8,21, 0,22, 0.00,15.00,SummerDesignDay
7,30.955
2,1, 8,21, 0,22,15.00,30.00,SummerDesignDay
7,30.586
2,1, 8,21, 0,22,30.00,45.00,SummerDesignDay
7,30.217
2,1, 8,21, 0,22,45.00,60.00,SummerDesignDay
7,29.848
2,1, 8,21, 0,22, 0.00,60.00,SummerDesignDay
4438,0.0
2,1, 8,21, 0,23, 0.00,15.00,SummerDesignDay
7,29.561
2,1, 8,21, 0,23,15.00,30.00,SummerDesignDay
7,29.274
2,1, 8,21, 0,23,30.00,45.00,SummerDesignDay
7,28.987000000000003
2,1, 8,21, 0,23,45.00,60.00,SummerDesignDay
7,28.700000000000004
2,1, 8,21, 0,23, 0.00,60.00,SummerDesignDay
4438,0.0
2,1, 8,21, 0,24, 0.00,15.00,SummerDesignDay
7,28.413000000000005
2,1, 8,21, 0,24,15.00,30.00,SummerDesignDay
7,28.126000000000006
2,1, 8,21, 0,24,30.00,45.00,SummerDesignDay
7,27.839
2,1, 8,21, 0,24,45.00,60.00,SummerDesignDay
7,27.552
2,1, 8,21, 0,24, 0.00,60.00,SummerDesignDay
4438,0.0
1,FRESNO-YOSEMITE-INTL-AP JUL CLG 0.4% CONDNS DB=>MCWB,  36.78,-119.72,  -8.00, 102.00
2,1, 7,21, 0, 1, 0.00,15.00,SummerDesignDay
7,29.473
2,1, 7,21, 0, 1,15.00,30.00,SummerDesignDay
7,29.23
2,1, 7,21, 0, 1,30.00,45.00,SummerDesignDay
7,28.987000000000003
2,1, 7,21, 0, 1,45.00,60.00,SummerDesignDay
7,28.744
2,1, 7,21, 0, 1, 0.00,60.00,SummerDesignDay
4438,0.0
2,1, 7,21, 0, 2, 0.00,15.00,SummerDesignDay
7,28.582
2,1, 7,21, 0, 2,15.00,30.00,SummerDesignDay
7,28.42
2,1, 7,21, 0, 2,30.00,45.00,SummerDesignDay
7,28.258000000000004
2,1, 7,21, 0, 2,45.00,60.00,SummerDesignDay
7,28.096
2,1, 7,21, 0, 2, 0.00,60.00,SummerDesignDay
4438,0.0
2,1, 7,21, 0, 3, 0.00,15.00,SummerDesignDay
7,27.9745
2,1, 7,21, 0, 3,15.00,30.00,SummerDesignDay
7,27.853
2,1, 7,21, 0, 3,30.00,45.00,SummerDesignDay
7,27.731500000000005
2,1, 7,21, 0, 3,45.00,60.00,SummerDesignDay
7,27.61
2,1, 7,21, 0, 3, 0.00,60.00,SummerDesignDay
4438,0.0
2,1, 7,21, 0, 4, 0.00,15.00,SummerDesignDay
7,27.488500000000003
2,1, 7,21, 0, 4,15.00,30.00,SummerDesignDay
7,27.367
2,1, 7,21, 0, 4,30.00,45.00,SummerDesignDay
7,27.2455
2,1, 7,21, 0, 4,45.00,60.00,SummerDesignDay
7,27.124000000000004
2,1, 7,21, 0, 4, 0.00,60.00,SummerDesignDay
4438,0.0
2,1, 7,21, 0, 5, 0.00,15.00,SummerDesignDay
7,27.043
2,1, 7,21, 0, 5,15.00,30.00,SummerDesignDay
7,26.962
2,1, 7,21, 0, 5,30.00,45.00,SummerDesignDay
7,26.881
2,1, 7,21, 0, 5,45.00,60.00,SummerDesignDay
7,26.8
2,1, 7,21, 0, 5, 0.00,60.00,SummerDesignDay
4438,0.0
2,1, 7,21, 0, 6, 0.00,15.00,SummerDesignDay
7,26.881
2,1, 7,21, 0, 6,15.00,30.00,SummerDesignDay
7,26.962
2,1, 7,21, 0, 6,30.00,45.00,SummerDesignDay
7,27.043
2,1, 7,21, 0, 6,45.00,60.00,SummerDesignDay
7,27.124000000000004
2,1, 7,21, 0, 6, 0.00,60.00,SummerDesignDay
4438,0.0
2,1, 7,21, 0, 7, 0.00,15.00,SummerDesignDay
7,27.4075
2,1, 7,21, 0, 7,15.00,30.00,SummerDesignDay
7,27.691
2,1, 7,21, 0, 7,30.00,45.00,SummerDesignDay
7,27.9745
2,1, 7,21, 0, 7,45.00,60.00,SummerDesignDay
7,28.258000000000004
2,1, 7,21, 0, 7, 0.00,60.00,SummerDesignDay
4438,0.0
2,1, 7,21, 0, 8, 0.00,15.00,SummerDesignDay
7,28.9465
2,1, 7,21, 0, 8,15.00,30.00,SummerDesignDay
7,29.635
2,1, 7,21, 0, 8,30.00,45.00,SummerDesignDay
7,30.323500000000004
2,1, 7,21, 0, 8,45.00,60.00,SummerDesignDay
7,31.012
2,1, 7,21, 0, 8, 0.00,60.00,SummerDesignDay
4438,0.0
2,1, 7,21, 0, 9, 0.00,15.00,SummerDesignDay
7,31.7815
2,1, 7,21, 0, 9,15.00,30.00,SummerDesignDay
7,32.551
2,1, 7,21, 0, 9,30.00,45.00,SummerDesignDay
7,33.320499999999999
2,1, 7,21, 0, 9,45.00,60.00,SummerDesignDay
7,34.09