Program Version,EnergyPlus, Version 9.0.1-bb7ca4f0da, YMD=2019.12.13 13:23
1,5,Environment Title[],Latitude[deg],Longitude[deg],Time Zone[],Elevation[m]
2,8,Day of Simulation[],Month[],Day of Month[],DST Indicator[1=yes 0=no],Hour[],StartMinute[],EndMinute[],DayType
3,5,Cumulative Day of Simulation[],Month[],Day of Month[],DST Indicator[1=yes 0=no],DayType  ! When Daily Meters Requested
4,2,Cumulative Days of Simulation[],Month[]  ! When Monthly Meters Requested
5,1,Cumulative Days of Simulation[] ! When Run Period Meters Requested
6,1,Calendar Year of Simulation[] ! When Annual Meters Requested
10,1,Electricity:Facility [J] !Hourly
46,1,InteriorLights:Electricity [J] !Hourly
992,1,InteriorEquipment:Electricity [J] !Hourly
4113,1,Fans:Electricity [J] !Hourly
4417,1,Pumps:Electricity [J] !Hourly
1496,1,Gas:Facility [J] !Hourly
4209,1,Heating:Electricity [J] !Hourly
4279,1,Cooling:Electricity [J] !Hourly
2227,1,WaterSystems:Electricity [J] !Hourly
1532,1,InteriorEquipment:Gas [J] !Hourly
4379,1,Heating:Gas [J] !Hourly
1016,1,Receptacle:InteriorEquipment:Electricity [J] !Hourly
2365,1,WaterSystems:Gas [J] !Hourly
1556,1,Receptacle:InteriorEquipment:Gas [J] !Hourly
70,1,ComplianceLtg:InteriorLights:Electricity [J] !Hourly
345,1,NonComplianceLtg:InteriorLights:Electricity [J] !Hourly
4125,1,General:Fans:Electricity [J] !Hourly
4161,1,ProcessMotors:Fans:Electricity [J] !Hourly
End of Data Dictionary
1,RIVERSIDE-MUNI ANN CLG 0.4% CONDNS DB=>MCWB,  33.95,-117.44,  -8.00, 253.00
2,1, 8,21, 0, 1, 0.00,60.00,SummerDesignDay
10,801848341.1153004
46,249737579.99999974
70,96701579.99999997
345,153035999.9999997
992,231449399.99999977
1016,231449399.99999977
1496,63675475.38351348
1532,57764642.17263899
1556,57764642.17263899
2227,17623277.444279754
2365,5910833.210874485
4113,137562200.41176135
4125,23967219.761806087
4161,113594920.84638603
4209,0.0
4279,165475883.25925974
4379,0.0
4417,0.0
2,1, 8,21, 0, 2, 0.00,60.00,SummerDesignDay
10,795200543.4523982
46,249737579.99999974
70,96701579.99999997
345,153035999.9999997
992,231449399.99999977
1016,231449399.99999977
1496,63945170.90178992
1532,57764642.17263899
1556,57764642.17263899
2227,17623074.876284884
2365,6180528.729150934
4113,137991030.19056443
4125,24396052.957358917
4161,113594920.84638603
4209,0.0
4279,158399458.3855493
4379,0.0
4417,0.0
2,1, 8,21, 0, 3, 0.00,60.00,SummerDesignDay
10,789055653.5067761
46,249737579.99999974
70,96701579.99999997
345,153035999.9999997
992,231449399.99999977
1016,231449399.99999977
1496,63779852.74537434
1532,57764642.17263899
1556,57764642.17263899
2227,17622996.43832601
2365,6015210.572735351
4113,138228515.95086686
4125,24633541.233313968
4161,113594920.84638603
4209,0.0
4279,152017161.11758346
4379,0.0
4417,0.0
2,1, 8,21, 0, 4, 0.00,60.00,SummerDesignDay
10,783293306.9788835
46,249737579.99999974
70,96701579.99999997
345,153035999.9999997
992,231449399.99999977
1016,231449399.99999977
1496,63840790.78195358
1532,57764642.17263899
1556,57764642.17263899
2227,17623012.203827714
2365,6076148.609314584
4113,138372984.01534496
4125,24778011.4275469
4161,113594920.84638603
4209,0.0
4279,146110330.75971095
4379,0.0
4417,0.0
2,1, 8,21, 0, 5, 0.00,60.00,SummerDesignDay
10,778339617.3882388
46,249737579.99999974
70,96701579.99999997
345,153035999.9999997
992,231449399.99999977
1016,231449399.99999977
1496,63884369.67036188
1532,57764642.17263899
1556,57764642.17263899
2227,17623318.384102048
2365,6119727.497722888
4113,138462546.35471038
4125,24867575.567956095
4161,113594920.84638603
4209,0.0
4279,141066772.64942656
4379,0.0
4417,0.0
2,1, 8,21, 0, 6, 0.00,60.00,SummerDesignDay
10,803754440.5411263
46,249737579.99999974
70,96701579.99999997
345,153035999.9999997
992,231449399.99999977
1016,231449399.99999977
1496,63736694.75738165
1532,57764642.17263899
1556,57764642.17263899
2227,17623314.9590954
2365,5972052.584742663
4113,138574024.78702424
4125,24979052.765674816
4161,113594920.84638602
4209,0.0
4279,166370120.79500694
4379,0.0
4417,0.0
2,1, 8,21, 0, 7, 0.00,60.00,SummerDesignDay
10,954652969.5272038
46,249737579.99999974
70,96701579.99999997
345,153035999.9999997
992,231449399.99999977
1016,231449399.99999977
1496,63988606.86197187
1532,57764642.17263899
1556,57764642.17263899
2227,17624638.93232421
2365,6223964.689332871
4113,189475888.99977298
4125,75880905.26612595
4161,113594920.84638602
4209,0.0
4279,266365461.5951069
4379,0.0
4417,0.0
2,1, 8,21, 0, 8, 0.00,60.00,SummerDesignDay
10,939240898.5403437
46,249737579.99999974
70,96701579.99999997
345,153035999.9999997
992,231449399.99999977
1016,231449399.99999977
1496,63675246.00804017
1532,57764642.17263899
1556,57764642.17263899
2227,17622621.393943728
2365,5910603.835401178
4113,177393340.3053875
4125,63798341.84591403
4161,113594920.84638603
4209,0.0
4279,263037956.8410127
4379,0.0
4417,0.0
2,1, 8,21, 0, 9, 0.00,60.00,SummerDesignDay
10,977117631.0556654
46,249737579.99999974
70,96701579.99999997
345,153035999.9999997
992,231449399.99999977
1016,231449399.99999977
1496,64049851.21044304
1532,57764642.17263899
1556,57764642.17263899
2227,17622749.904146159
2365,6285209.0378040489
4113,168791096.05189977
4125,55196080.21416324
4161,113594920.84638603
4209,0.0
4279,309516805.0996198
4379,0.0
4417,0.0
2,1, 8,21, 0,10, 0.00,60.00,SummerDesignDay
10,1021640595.5815084
46,249737579.99999974
70,96701579.99999997
345,153035999.9999997
992,231449399.99999977
1016,231449399.99999977
1496,63675158.76803823
1532,57764642.17263899
1556,57764642.17263899
2227,17622815.971942527
2365,5910516.59539924
4113,165470971.9324194
4125,51875942.247107367
4161,113594920.84638603
4209,0.0
4279,357359827.6771467
4379,0.0
4417,0.0
2,1, 8,21, 0,11, 0.00,60.00,SummerDesignDay
10,1059839525.6256942
46,249737579.99999974
70,96701579.99999997
345,153035999.9999997
992,231449399.99999977
1016,231449399.99999977
1496,63977737.52032888
1532,57764642.17263899
1556,57764642.17263899
2227,17623142.5150768
2365,6213095.34768989
4113,163153558.83628024
4125,49558519.61511321
4161,113594920.84638603
4209,0.0
4279,397875844.27433726
4379,0.0
4417,0.0
2,1, 8,21, 0,12, 0.00,60.00,SummerDesignDay
10,1091911682.906972
46,249737579.99999974
70,96701579.99999997
345,153035999.9999997
992,231449399.99999977
1016,231449399.99999977
1496,63747302.45589065
1532,57764642.17263899
1556,57764642.17263899
2227,17622764.467180816
2365,5982660.283251664
4113,161802260.32051827
4125,48207214.21669241
4161,113594920.84638603
4209,0.0
4279,431299678.11927309
4379,0.0
4417,0.0
2,1, 8,21, 0,13, 0.00,60.00,SummerDesignDay
10,1120282818.4498528
46,249737579.99999974
70,96701579.99999997
345,153035999.9999997
992,231449399.99999977
1016,231449399.99999977
1496,63873362.641263548
1532,57764642.17263899
1556,57764642.17263899
2227,17622665.64429726
2365,6108720.468624558
4113,161312365.61050908
4125,47717313.51457577
4161,113594920.84638603
4209,0.0
4279,460160807.1950463
4379,0.0
4417,0.0
2,1, 8,21, 0,14, 0.00,60.00,SummerDesignDay
10,1152566492.6664685
46,249737579.99999974
70,96701579.99999997
345,153035999.9999997
992,231449399.99999977
1016,231449399.99999977
1496,63851797.58099455
1532,57764642.17263899
1556,57764642.17263899
2227,17740568.804992
2365,6087155.408355553
4113,161704649.94948707
4125,48109589.32809533
4161,113594920.84638603
4209,0.0
4279,491934293.91198948
4379,0.0
4417,0.0
2,1, 8,21, 0,15, 0.00,60.00,SummerDesignDay
10,1178263075.7993823
46,249737579.99999974
70,96701579.99999997
345,153035999.9999997
992,231449399.99999977
1016,231449399.99999977
1496,63768850.90855416
1532,57764642.17263899
1556,57764642.17263899
2227,17812582.569835236
2365,6004208.73591517
4113,162435971.681454
4125,48840902.42935445
4161,113594920.84638603
4209,0.0
4279,516827541.5480932
4379,0.0
4417,0.0
2,1, 8,21, 0,16, 0.00,60.00,SummerDesignDay
10,1178260780.8739882
46,249737579.99999974
70,96701579.99999997
345,153035999.9999997
992,231449399.99999977
1016,231449399.99999977
1496,63956253.96502849
1532,57764642.17263899
1556,57764642.17263899
2227,17812540.97921951
2365,6191611.792389498
4113,162447359.46325905
4125,48852287.21922429
4161,113594920.84638603
4209,0.0
4279,516813900.43150988
4379,0.0
4417,0.0
2,1, 8,21, 0,17, 0.00,60.00,SummerDesignDay
10,1152185659.7255016
46,249737579.99999974
70,96701579.99999997
345,153035999.9999997
992,231449399.99999977
1016,231449399.99999977
1496,63675587.67364484
1532,57764642.17263899
1556,57764642.17263899
2227,17812622.018297238
2365,5910945.5010058539
4113,162451925.77115066
4125,48856859.137066628
4161,113594920.84638603
4209,0.0
4279,490734131.9360535
4379,0.0
4417,0.0
2,1, 8,21, 0,18, 0.00,60.00,SummerDesignDay
10,1104666668.7380136
46,249737579.99999974
70,96701579.99999997
345,153035999.9999997
992,231449399.99999977
1016,231449399.99999977
1496,64049571.47852633
1532,57764642.17263899
1556,57764642.17263899
2227,17812738.155840849
2365,6284929.305887343
4113,160722877.17901299
4125,47127822.39894034
4161,113594920.84638603
4209,0.0
4279,444944073.4031597
4379,0.0
4417,0.0
2,1, 8,21, 0,19, 0.00,60.00,SummerDesignDay
10,1034036410.0776496
46,249737579.99999974
70,96701579.99999997
345,153035999.9999997
992,231449399.99999977
1016,231449399.99999977
1496,63675384.7793753
1532,57764642.17263899
1556,57764642.17263899
2227,17812613.509124027
2365,5910742.606736314
4113,159018010.8234288
4125,45422976.92147684
4161,113594920.84638603
4209,0.0
4279,376018805.74509707
4379,0.0
4417,0.0
2,1, 8,21, 0,20, 0.00,60.00,SummerDesignDay
10,979298186.9514454
46,249737579.99999974
70,96701579.99999997
345,153035999.9999997
992,231449399.99999977
1016,231449399.99999977
1496,64009704.29212178
1532,57764642.17263899
1556,57764642.17263899
2227,17688823.928131075
2365,6245062.119482785
4113,158370197.68945337
4125,44775180.24001375
4161,113594920.84638603
4209,0.0
4279,322052185.3338609
4379,0.0
4417,0.0
2,1, 8,21, 0,21, 0.00,60.00,SummerDesignDay
10,941686299.0568366
46,249737579.99999974
70,96701579.99999997
345,153035999.9999997
992,231449399.99999977
1016,231449399.99999977
1496,63715301.67380854
1532,57764642.17263899
1556,57764642.17263899
2227,17623125.041226955
2365,5950659.501169546
4113,158060392.67872397
4125,44465386.72630608
4161,113594920.84638603
4209,0.0
4279,284815801.3368859
4379,0.0
4417,0.0
2,1, 8,21, 0,22, 0.00,60.00,SummerDesignDay
10,863638451.1859756
46,249737579.99999974
70,96701579.99999997
345,153035999.9999997
992,231449399.99999977
1016,231449399.99999977
1496,63905388.991947229
1532,57764642.17263899
1556,57764642.17263899
2227,17624391.14555255
2365,6140746.819308236
4113,136852600.7719624
4125,23257603.327025705
4161,113594920.84638603
4209,0.0
4279,227974479.26846094
4379,0.0
4417,0.0
2,1, 8,21, 0,23, 0.00,60.00,SummerDesignDay
10,844328525.6009657
46,249737579.99999974
70,96701579.99999997
345,153035999.9999997
992,231449399.99999977
1016,231449399.99999977
1496,63820264.344024058
1532,57764642.17263899
1556,57764642.17263899
2227,17622560.37218059
2365,6055622.171385064
4113,137029340.9953407
4125,23434350.14654512
4161,113594920.84638603
4209,0.0
4279,208489644.2334445
4379,0.0
4417,0.0
2,1, 8,21, 0,24, 0.00,60.00,SummerDesignDay
10,828520218.5289955
46,249737579.99999974
70,96701579.99999997
345,153035999.9999997
992,231449399.99999977
1016,231449399.99999977
1496,63800456.574321959
1532,57764642.17263899
1556,57764642.17263899
2227,17623180.797082135
2365,6035814.401682963
4113,137184565.17217116
4125,23589579.801518557
4161,113594920.84638603
4209,0.0
4279,192525492.55974237
4379,0.0
4417,0.0
1,RIVERSIDE-MUNI ANN CLG 0.4% CONDNS DP=>MCDB,  33.95,-117.44,  -8.00, 253.00
2,1, 8,21, 0, 1, 0.00,60.00,SummerDesignDay
10,676831550.8065128
46,249737579.99999974
70,96701579.99999997
345,153035999.9999997
992,231449399.99999977
1016,231449399.99999977
1496,89869821.34583484
1532,57764642.17263899
1556,57764642.17263899
2227,17622861.701934115
2365,5910814.349802382
4113,137055503.73912666
4125,23460561.61782132
4161,113594920.84638603
4209,3381652.4784656355
4279,37437638.51488297
4379,26194364.823393469
4417,146914.37210339195
2,1, 8,21, 0, 2, 0.00,60.00,SummerDesignDay
10,668534039.8110671
46,249737579.99999974
70,96701579.99999997
345,153035999.9999997
992,231449399.99999977
1016,231449399.99999977
1496,106890099.30330962
1532,57764642.17263899
1556,57764642.17263899
2227,17623074.92498327
2365,6180469.243078587
4113,137092325.2835816
4125,23497387.26961582
4161,113594920.84638603
4209,2508739.421309251
4279,29976151.555697979
4379,42944987.887592058
4417,146768.62549510084
2,1, 8,21, 0, 3, 0.00,60.00,SummerDesignDay
10,663237368.1046105
46,249737579.99999974
70,96701579.99999997
345,153035999.9999997
992,231449399.99999977
1016,231449399.99999977
1496,117184262.2004539
1532,57764642.17263899
1556,57764642.17263899
2227,17622996.450638437
2365,6015270.123640624
4113,137116757.415121
4125,23521822.40673329
4161,113594920.84638603
4209,2566967.2486061726
4279,24596891.603022323
4379,53404349.9041743
4417,146775.38722298516
2,1, 8,21, 0, 4, 0.00,60.00,SummerDesignDay
10,659550570.2929262
46,249737579.99999974
70,96701579.99999997
345,153035999.9999997
992,231449399.99999977
1016,231449399.99999977
1496,125688078.73253072
1532,57764642.17263899
1556,57764642.17263899
2227,17623012.179151559
2365,6076089.03267953
4113,137133002.56674863
4125,23538069.73014743
4161,113594920.84638603
4209,2731226.171645597
4279,20729484.21781381
4379,61847347.52721218
4417,146865.15756698347
2,1, 8,21, 0, 5, 0.00,60.00,SummerDesignDay
10,656661814.2660989
46,249737579.99999974
70,96701579.99999997
345,153035999.9999997
992,231449399.99999977
1016,231449399.99999977
1496,132423133.57356975
1532,57764642.17263899
1556,57764642.17263899
2227,17623318.22712664
2365,6119787.099306877
4113,137144478.85149438
4125,23549547.75382277
4161,113594920.84638603
4209,2913141.9152170044
4279,17646892.806237457
4379,68538704.30162388
4417,147002.46602378248
2,1, 8,21, 0, 6, 0.00,60.00,SummerDesignDay
10,669343912.4881133
46,249737579.99999974
70,96701579.99999997
345,153035999.9999997
992,231449399.99999977
1016,231449399.99999977
1496,129010625.32063666
1532,57764642.17263899
1556,57764642.17263899
2227,17623409.118963384
2365,5971792.748628125
4113,137155782.43472264
4125,23560850.817906824
4161,113594920.84638603
4209,371324.1803783926
4279,32859465.11262569
4379,65274190.39936954
4417,146951.6414234208
2,1, 8,21, 0, 7, 0.00,60.00,SummerDesignDay
10,726834631.0041289
46,249737579.99999974
70,96701579.99999997
345,153035999.9999997
992,231449399.99999977
1016,231449399.99999977
1496,63988988.95058324
1532,57764642.17263899
1556,57764642.17263899
2227,17624245.844335036
2365,6224346.777944256
4113,177321667.69997353
4125,63726726.33972363
4161,113594920.84638602
4209,0.0
4279,50701737.45982055
4379,0.0
4417,0.0
2,1, 8,21, 0, 8, 0.00,60.00,SummerDesignDay
10,738311005.5222546
46,249737579.99999974
70,96701579.99999997
345,153035999.9999997
992,231449399.99999977
1016,231449399.99999977
1496,63675596.01660347
1532,57764642.17263899
1556,57764642.17263899
2227,17623078.10477247
2365,5910953.843964482
4113,162285587.40959449
4125,48690631.90346903
4161,113594920.84638603
4209,0.0
4279,77215360.00788786
4379,0.0
4417,0.0
2,1, 8,21, 0, 9, 0.00,60.00,SummerDesignDay
10,816615234.9606398
46,249737579.99999974
70,96701579.99999997
345,153035999.9999997
992,231449399.99999977
1016,231449399.99999977
1496,64049854.89550329
1532,57764642.17263899
1556,57764642.17263899
2227,17622750.218718225
2365,6285212.722864295
4113,156861078.43019495
4125,43266104.74336324
4161,113594920.84638603
4209,0.0
4279,160944426.31172694
4379,0.0
4417,0.0
2,1, 8,21, 0,10, 0.00,60.00,SummerDesignDay
10,887191110.2784333
46,249737579.99999974
70,96701579.99999997
345,153035999.9999997
992,231449399.99999977
1016,231449399.99999977
1496,63675158.04303074
1532,57764642.17263899
1556,57764642.17263899
2227,17622815.280443327
2365,5910515.870391749
4113,154903918.86694245
4125,41308929.68876147
4161,113594920.84638603
4209,0.0
4279,233477396.13104782
4379,0.0
4417,0.0
2,1, 8,21, 0,11, 0.00,60.00,SummerDesignDay
10,925240606.4284468
46,249737579.99999974
70,96701579.99999997
345,153035999.9999997
992,231449399.99999977
1016,231449399.99999977
1496,63976562.140537668
1532,57764642.17263899
1556,57764642.17263899
2227,17622713.938720559
2365,6211919.967898676
4113,153477753.3522574
4125,39882753.84729413
4161,113594920.84638603
4209,0.0
4279,272953159.13746866
4379,0.0
4417,0.0
2,1, 8,21, 0,12, 0.00,60.00,SummerDesignDay
10,937996176.4144173
46,249737579.99999974
70,96701579.99999997
345,153035999.9999997
992,231449399.99999977
1016,231449399.99999977
1496,63748359.77600197
1532,57764642.17263899
1556,57764642.17263899
2227,17622658.40255971
2365,5983717.603362978
4113,152612748.10283665
4125,39017741.50192329
4161,113594920.84638603
4209,0.0
4279,286573789.9090211
4379,0.0
4417,0.0
2,1, 8,21, 0,13, 0.00,60.00,SummerDesignDay
10,953287009.5112181
46,249737579.99999974
70,96701579.99999997
345,153035999.9999997
992,231449399.99999977
1016,231449399.99999977
1496,63872508.41703764
1532,57764642.17263899
1556,57764642.17263899
2227,17622665.61234492
2365,6107866.244398651
4113,152309074.98482157
4125,38714062.20085488
4161,113594920.84638603
4209,0.0
4279,302168288.914052
4379,0.0
4417,0.0
2,1, 8,21, 0,14, 0.00,60.00,SummerDesignDay
10,978882187.9777384
46,249737579.99999974
70,96701579.99999997
345,153035999.9999997
992,231449399.99999977
1016,231449399.99999977
1496,63852651.46875338
1532,57764642.17263899
1556,57764642.17263899
2227,17740685.510697865
2365,6088009.29611439
4113,152620742.93697039
4125,39025721.59465134
4161,113594920.84638603
4209,0.0
4279,327333779.53007057
4379,0.0
4417,0.0
2,1, 8,21, 0,15, 0.00,60.00,SummerDesignDay
10,1000178321.849143
46,249737579.99999974
70,96701579.99999997
345,153035999.9999997
992,231449399.99999977
1016,231449399.99999977
1496,63767997.50858916
1532,57764642.17263899
1556,57764642.17263899
2227,17812582.378912946
2365,6003355.335950175
4113,153179582.93227033
4125,39584553.13530831
4161,113594920.84638603
4209,0.0
4279,347999176.53796008
4379,0.0
4417,0.0
2,1, 8,21, 0,16, 0.00,60.00,SummerDesignDay
10,1001264975.2403208
46,249737579.99999974
70,96701579.99999997
345,153035999.9999997
992,231449399.99999977
1016,231449399.99999977
1496,63957106.4917561
1532,57764642.17263899
1556,57764642.17263899
2227,17812541.018440837
2365,6192464.319117114
4113,153212634.81621719
4125,39617602.39550698
4161,113594920.84638603
4209,0.0
4279,349052819.40566286
4379,0.0
4417,0.0
2,1, 8,21, 0,17, 0.00,60.00,SummerDesignDay
10,981436269.5619587
46,249737579.99999974
70,96701579.99999997
345,153035999.9999997
992,231449399.99999977
1016,231449399.99999977
1496,63675589.667578328
1532,57764642.17263899
1556,57764642.17263899
2227,17812622.0786182
2365,5910947.494939329
4113,153221799.05028344
4125,39626772.427318017
4161,113594920.84638603
4209,0.0
4279,329214868.4330574
4379,0.0
4417,0.0
2,1, 8,21, 0,18, 0.00,60.00,SummerDesignDay
10,953275596.6775634
46,249737579.99999974
70,96701579.99999997
345,153035999.9999997
992,231449399.99999977
1016,231449399.99999977
1496,64049572.65601428
1532,57764642.17263899
1556,57764642.17263899
2227,17812738.238105589
2365,6284930.483375287
4113,151976151.39718003
4125,38381136.34801335
4161,113594920.84638603
4209,0.0
4279,302299727.04227796
4379,0.0
4417,0.0
2,1, 8,21, 0,19, 0.00,60.00,SummerDesignDay
10,901682498.8600831
46,249737579.99999974
70,96701579.99999997
345,153035999.9999997
992,231449399.99999977
1016,231449399.99999977
1496,63675293.14865603
1532,57764642.17263899
1556,57764642.17263899
2227,17812355.433699408
2365,5910650.976017039
4113,150712616.30288703
4125,37117620.98528576
4161,113594920.84638603
4209,0.0
4279,251970547.1234973
4379,0.0
4417,0.0
2,1, 8,21, 0,20, 0.00,60.00,SummerDesignDay
10,855107839.7692558
46,249737579.99999974
70,96701579.99999997
345,153035999.9999997
992,231449399.99999977
1016,231449399.99999977
1496,64008893.825622219
1532,57764642.17263899
1556,57764642.17263899
2227,17688711.148634506
2365,6244251.652983221
4113,150188098.84580905
4125,36593118.43556516
4161,113594920.84638603
4209,0.0
4279,206044049.77481223
4379,0.0
4417,0.0
2,1, 8,21, 0,21, 0.00,60.00,SummerDesignDay
10,817200493.4921206
46,249737579.99999974
70,96701579.99999997
345,153035999.9999997
992,231449399.99999977
1016,231449399.99999977
1496,63716225.33647484
1532,57764642.17263899
1556,57764642.17263899
2227,17623124.754817338
2365,5951583.163835855
4113,149920323.4045696
4125,36325353.280630949
4161,113594920.84638603
4209,0.0
4279,168470065.33273409
4379,0.0
4417,0.0
2,1, 8,21, 0,22, 0.00,60.00,SummerDesignDay
10,738281857.5637375
46,249737579.99999974
70,96701579.99999997
345,153035999.9999997
992,231449399.99999977
1016,231449399.99999977
1496,63904381.04745428
1532,57764642.17263899
1556,57764642.17263899
2227,17624636.212930867
2365,6139738.874815283
4113,136813101.26029314
4125,23218139.61229813
4161,113594920.84638603
4209,0.0
4279,102657140.0905138
4379,0.0
4417,0.0
2,1, 8,21, 0,23, 0.00,60.00,SummerDesignDay
10,713142424.0950108
46,249737579.99999974
70,96701579.99999997
345,153035999.9999997
992,231449399.99999977
1016,231449399.99999977
1496,63821217.194332908
1532,57764642.17263899
1556,57764642.17263899
2227,17622560.368248539
2365,6056575.02169392
4113,136938083.87682546
4125,23343129.70301999
4161,113594920.84638603
4209,0.0
4279,77394799.84993716
4379,0.0
4417,0.0
2,1, 8,21, 0,24, 0.00,60.00,SummerDesignDay
10,694732033.067251
46,249737579.99999974
70,96701579.99999997
345,153035999.9999997
992,231449399.99999977
1016,231449399.99999977
1496,70803832.83113364
1532,57764642.17263899
1556,57764642.17263899
2227,17623180.739589298
2365,6034861.939191642
4113,137007049.89195348
4125,23412102.175017898
4161,113594920.84638603
4209,1546.9708996573509
4279,58802855.46540197
4379,7004328.719302997
4417,110419.99940690413
1,RIVERSIDE-MUNI ANN HTG 99.6% CONDNS DB,  33.95,-117.44,  -8.00, 253.00
2,1, 1,21, 0, 1, 0.00,60.00,WinterDesignDay
10,363770750.6787543
46,0.0
70,0.0
345,0.0
992,0.0
1016,0.0
1496,239996472.5655325
1532,0.0
1556,0.0
2227,72000.0
2365,579566.9998429145
4113,136768260.36169894
4125,23173298.154049584
4161,113594920.84638603
4209,226671017.45972873
4279,0.0
4379,239416905.5656896
4417,259472.85732677033
2,1, 1,21, 0, 2, 0.00,60.00,WinterDesignDay
10,389457678.92408516
46,0.0
70,0.0
345,0.0
992,0.0
1016,0.0
1496,249154604.56835247
1532,0.0
1556,0.0
2227,72000.0
2365,833404.852149997
4113,136768265.6396529
4125,23173298.154049584
4161,113594920.84638603
4209,252353600.03495366
4279,0.0
4379,248321199.71620245
4417,263813.2494786435
2,1, 1,21, 0, 3, 0.00,60.00,WinterDesignDay
10,404381266.33764496
46,0.0
70,0.0
345,0.0
992,0.0
1016,0.0
1496,256565664.4218716
1532,0.0
1556,0.0
2227,72000.0
2365,833372.4251670758
4113,136768268.6993151
4125,23173298.154049584
4161,113594920.84638603
4209,267273388.86756499
4279,0.0
4379,255732291.9967045
4417,267608.7707647638
2,1, 1,21, 0, 4, 0.00,60.00,WinterDesignDay
10,416208495.6287435
46,0.0
70,0.0
345,0.0
992,0.0
1016,0.0
1496,262021609.132795
1532,0.0
1556,0.0
2227,72000.0
2365,833413.192706943
4113,136768271.0791465
4125,23173298.154049584
4161,113594920.84638603
4209,279097644.71968069
4279,0.0
4379,261188195.94008807
4417,270579.8299164155
2,1, 1,21, 0, 5, 0.00,60.00,WinterDesignDay
10,424986539.13821169
46,0.0
70,0.0
345,0.0
992,0.0
1016,0.0
1496,265896462.21441484
1532,0.0
1556,0.0
2227,72000.0
2365,833295.6027141437
4113,136768272.8617774
4125,23173298.154049584
4161,113594920.84638603
4209,287873463.0673336
4279,0.0
4379,265063166.6117007
4417,272803.2091006129
2,1, 1,21, 0, 6, 0.00,60.00,WinterDesignDay
10,431743101.4922597
46,0.0
70,0.0
345,0.0
992,0.0
1016,0.0
1496,268411940.59027077
1532,0.0
1556,0.0
2227,72000.0
2365,671398.456747257
4113,136768274.25180818
4125,23173298.154049584
4161,113594920.84638603
4209,294628438.7903814
4279,0.0
4379,267740542.13352353
4417,274388.4500700718
2,1, 1,21, 0, 7, 0.00,60.00,WinterDesignDay
10,1007849584.3543853
46,0.0
70,0.0
345,0.0
992,0.0
1016,0.0
1496,528655667.87769398
1532,0.0
1556,0.0
2227,72000.0
2365,741708.8821361209
4113,157154289.693198
4125,43559194.2464741
4161,113594920.84638603
4209,849882023.0446261
4279,0.0
4379,527913958.99555787
4417,741271.6165612403
2,1, 1,21, 0, 8, 0.00,60.00,WinterDesignDay
10,723723190.1232684
46,0.0
70,0.0
345,0.0
992,0.0
1016,0.0
1496,433944013.8940643
1532,0.0
1556,0.0
2227,72000.0
2365,833457.2987485246
4113,137036563.1343973
4125,23441524.10921232
4161,113594920.84638603
4209,586075317.3477681
4279,0.0
4379,433110556.5953158
4417,539309.6411029679
2,1, 1,21, 0, 9, 0.00,60.00,WinterDesignDay
10,669364977.022942
46,0.0
70,0.0
345,0.0
992,0.0
1016,0.0
1496,403956265.62239238
1532,0.0
1556,0.0
2227,72000.0
2365,833340.1110131713
4113,136850189.5908944
4125,23255161.904740085
4161,113594920.84638603
4209,531989814.59268268
4279,0.0
4379,403122925.5113792
4417,452972.83936496896
2,1, 1,21, 0,10, 0.00,60.00,WinterDesignDay
10,647630279.4377599
46,0.0
70,0.0
345,0.0
992,0.0
1016,0.0
1496,391057257.68128928
1532,0.0
1556,0.0
2227,72000.0
2365,833381.0964827936
4113,136783791.2740729
4125,23188768.02531988
4161,113594920.84638603
4209,510350107.8652458
4279,0.0
4379,390223876.5848065
4417,424380.2984411743
2,1, 1,21, 0,11, 0.00,60.00,WinterDesignDay
10,635373607.543426
46,0.0
70,0.0
345,0.0
992,0.0
1016,0.0
1496,384572804.2756053
1532,0.0
1556,0.0
2227,72000.0
2365,833291.6182048227
4113,136768318.90789519
4125,23173298.154049584
4161,113594920.84638603
4209,498123041.82828417
4279,0.0
4379,383739512.6574005
4417,410246.8072466051
2,1, 1,21, 0,12, 0.00,60.00,WinterDesignDay
10,627229706.0585966
46,0.0
70,0.0
345,0.0
992,0.0
1016,0.0
1496,380501285.77982696
1532,0.0
1556,0.0
2227,72000.0
2365,579602.2755487459
4113,136768317.23818717
4125,23173298.154049584
4161,113594920.84638603
4209,489987580.9335269
4279,0.0
4379,379921683.5042782
4417,401807.8868826719
2,1, 1,21, 0,13, 0.00,60.00,WinterDesignDay
10,621273233.7509502
46,0.0
70,0.0
345,0.0
992,0.0
1016,0.0
1496,378186142.53509119
1532,0.0
1556,0.0
2227,72000.0
2365,833383.8343905327
4113,136768316.00522647
4125,23173298.154049584
4161,113594920.84638603
4209,484036452.3697231
4279,0.0
4379,377352758.70070067
4417,396465.3760006587
2,1, 1,21, 0,14, 0.00,60.00,WinterDesignDay
10,616666313.6501709
46,0.0
70,0.0
345,0.0
992,0.0
1016,0.0
1496,376454883.4723517
1532,0.0
1556,0.0
2227,72000.0
2365,833425.2771960263
4113,136768315.04241834
4125,23173298.154049584
4161,113594920.84638603
4209,479433017.63072136
4279,0.0
4379,375621458.1951556
4417,392980.9770312563
2,1, 1,21, 0,15, 0.00,60.00,WinterDesignDay
10,612993397.9777081
46,0.0
70,0.0
345,0.0
992,0.0
1016,0.0
1496,375149698.132476
1532,0.0
1556,0.0
2227,72000.0
2365,833320.821736833
4113,136768314.26824738
4125,23173298.154049584
4161,113594920.84638603
4209,475762656.32893618
4279,0.0
4379,374316377.31073918
4417,390427.3805243878
2,1, 1,21, 0,16, 0.00,60.00,WinterDesignDay
10,609965497.5247597
46,0.0
70,0.0
345,0.0
992,0.0
1016,0.0
1496,374310559.3284415
1532,0.0
1556,0.0
2227,72000.0
2365,833348.8176483461
4113,136768313.6251667
4125,23173298.154049584
4161,113594920.84638603
4209,472736374.9747605
4279,0.0
4379,373477210.5107931
4417,388808.924832568
2,1, 1,21, 0,17, 0.00,60.00,WinterDesignDay
10,607377546.577168
46,0.0
70,0.0
345,0.0
992,0.0
1016,0.0
1496,373771737.0132555
1532,0.0
1556,0.0
2227,72000.0
2365,833388.980959059
4113,136768313.0724917
4125,23173298.154049584
4161,113594920.84638603
4209,470149449.1761468
4279,0.0
4379,372938348.0322964
4417,387784.3285296683
2,1, 1,21, 0,18, 0.00,60.00,WinterDesignDay
10,605143692.4743533
46,0.0
70,0.0
345,0.0
992,0.0
1016,0.0
1496,373032791.5247506
1532,0.0
1556,0.0
2227,72000.0
2365,579580.7790992186
4113,136768312.59357939
4125,23173298.154049584
4161,113594920.84638603
4209,467916502.75663378
4279,0.0
4379,372453210.74565127
4417,386877.12414003247
2,1, 1,21, 0,19, 0.00,60.00,WinterDesignDay
10,603222962.3368647
46,0.0
70,0.0
345,0.0
992,0.0
1016,0.0
1496,372989098.44708147
1532,0.0
1556,0.0
2227,72000.0
2365,833353.9626140749
4113,136768312.18060638
4125,23173298.154049584
4161,113594920.84638603
4209,465996333.38772407
4279,0.0
4379,372155744.4844674
4417,386316.7685341772
2,1, 1,21, 0,20, 0.00,60.00,WinterDesignDay
10,601573157.2458454
46,0.0
70,0.0
345,0.0
992,0.0
1016,0.0
1496,372811869.7018218
1532,0.0
1556,0.0
2227,72000.0
2365,833393.1208631153
4113,136768311.82489944
4125,23173298.154049584
4161,113594920.84638603
4209,464346859.3319579
4279,0.0
4379,371978476.5809586
4417,385986.08898815096
2,1, 1,21, 0,21, 0.00,60.00,WinterDesignDay
10,600082771.2424843
46,0.0
70,0.0
345,0.0
992,0.0
1016,0.0
1496,372732782.46312549
1532,0.0
1556,0.0
2227,72000.0
2365,833433.749127713
4113,136768311.50293149
4125,23173298.154049584
4161,113594920.84638603
4209,462856621.24447908
4279,0.0
4379,371899348.7139978
4417,385838.4950737617
2,1, 1,21, 0,22, 0.00,60.00,WinterDesignDay
10,598506083.722421
46,0.0
70,0.0
345,0.0
992,0.0
1016,0.0
1496,220833966.16421197
1532,0.0
1556,0.0
2227,72000.0
2365,833535.0168841158
4113,136768311.2028185
4125,23173298.154049584
4161,113594920.84638602
4209,461416233.2589234
4279,0.0
4379,220000431.14732785
4417,249539.26067915979
2,1, 1,21, 0,23, 0.00,60.00,WinterDesignDay
10,186619658.1031089
46,0.0
70,0.0
345,0.0
992,0.0
1016,0.0
1496,217741224.9155401
1532,0.0
1556,0.0
2227,72000.0
2365,774069.708037567
4113,136768221.18424655
4125,23173298.154049584
4161,113594920.84638603
4209,49529806.02668073
4279,0.0
4379,216967155.20750255
4417,249630.89218163456
2,1, 1,21, 0,24, 0.00,60.00,WinterDesignDay
10,298611516.4049786
46,0.0
70,0.0
345,0.0
992,0.0
1016,0.0
1496,228505199.1849302
1532,0.0
1556,0.0
2227,72000.0
2365,639021.4071098111
4113,136768246.5369698
4125,23173298.154049584
4161,113594920.84638603
4209,161516824.6376309
4279,0.0
4379,227866177.7778204
4417,254445.23037794763
1,RIVERSIDE-MUNI AUG CLG 0.4% CONDNS DB=>MCWB,  33.95,-117.44,  -8.00, 253.00
2,1, 8,21, 0, 1, 0.00,60.00,SummerDesignDay
10,813562303.3479673
46,249737579.99999974
70,96701579.99999997