Program Version,EnergyPlus, Version 9.0.1-bb7ca4f0da, YMD=2020.01.08 20:44
1,5,Environment Title[],Latitude[deg],Longitude[deg],Time Zone[],Elevation[m]
2,8,Day of Simulation[],Month[],Day of Month[],DST Indicator[1=yes 0=no],Hour[],StartMinute[],EndMinute[],DayType
3,5,Cumulative Day of Simulation[],Month[],Day of Month[],DST Indicator[1=yes 0=no],DayType  ! When Daily Meters Requested
4,2,Cumulative Days of Simulation[],Month[]  ! When Monthly Meters Requested
5,1,Cumulative Days of Simulation[] ! When Run Period Meters Requested
6,1,Calendar Year of Simulation[] ! When Annual Meters Requested
47,1,InteriorLights:Electricity [J] !Hourly
11,1,Electricity:Facility [J] !Hourly
2366,1,WaterSystems:Gas [J] !Hourly
993,1,InteriorEquipment:Electricity [J] !Hourly
4122,1,Fans:Electricity [J] !Hourly
4231,1,Heating:Gas [J] !Hourly
4480,1,Pumps:Electricity [J] !Hourly
4244,1,Heating:Electricity [J] !Hourly
4355,1,Cooling:Electricity [J] !Hourly
1497,1,Gas:Facility [J] !Hourly
2228,1,WaterSystems:Electricity [J] !Hourly
1533,1,InteriorEquipment:Gas [J] !Hourly
1017,1,Receptacle:InteriorEquipment:Electricity [J] !Hourly
1557,1,Receptacle:InteriorEquipment:Gas [J] !Hourly
71,1,ComplianceLtg:InteriorLights:Electricity [J] !Hourly
346,1,NonComplianceLtg:InteriorLights:Electricity [J] !Hourly
4134,1,General:Fans:Electricity [J] !Hourly
4171,1,ProcessMotors:Fans:Electricity [J] !Hourly
End of Data Dictionary
1,CTZ12S22A,  38.51,-121.50,  -8.00,   7.00
2,1, 1, 1, 0, 1, 0.00,60.00,Holiday
11,66336099.935493107
47,24156278.99999996
71,4835078.999999999
346,19321199.999999968
993,18722069.99999997
1017,18722069.99999997
1497,1042955.9527809088
1533,0.0
1557,0.0
2228,800044.4900827627
2366,1042955.9527809088
4122,22657706.445410395
4134,8458341.339612136
4171,14199365.105798256
4231,0.0
4244,0.0
4355,0.0
4480,0.0
2,1, 1, 1, 0, 2, 0.00,60.00,Holiday
11,67136022.08616364
47,24156278.99999996
71,4835078.999999999
346,19321199.999999968
993,18722069.99999997
1017,18722069.99999997
1497,1043349.7912773104
1533,0.0
1557,0.0
2228,1599966.6407533126
2366,1043349.7912773104
4122,22657706.445410395
4134,8458341.339612136
4171,14199365.105798256
4231,0.0
4244,0.0
4355,0.0
4480,0.0
2,1, 1, 1, 0, 3, 0.00,60.00,Holiday
11,67135858.44743485
47,24156278.99999996
71,4835078.999999999
346,19321199.999999968
993,18722069.99999997
1017,18722069.99999997
1497,1304059.2540410064
1533,0.0
1557,0.0
2228,1599803.0020244998
2366,1304059.2540410064
4122,22657706.445410395
4134,8458341.339612136
4171,14199365.105798256
4231,0.0
4244,0.0
4355,0.0
4480,0.0
2,1, 1, 1, 0, 4, 0.00,60.00,Holiday
11,68879287.6505301
47,24156278.99999996
71,4835078.999999999
346,19321199.999999968
993,18722069.99999997
1017,18722069.99999997
1497,1226183.5254973027
1533,0.0
1557,0.0
2228,1586423.9924311806
2366,1038007.543651806
4122,24405335.408821167
4134,10205970.303022908
4171,14199365.105798256
4231,188175.9818454968
4244,33.69096233627023
4355,0.0
4480,9145.55831546021
2,1, 1, 1, 0, 5, 0.00,60.00,Holiday
11,70148058.91587368
47,24156278.99999996
71,4835078.999999999
346,19321199.999999968
993,18722069.99999997
1017,18722069.99999997
1497,2749365.606577212
1533,0.0
1557,0.0
2228,793169.7313234062
2366,1038131.6310771076
4122,26458158.575487675
4134,12253740.39796447
4171,14199365.105798256
4231,1711233.9755001043
4244,287.75194994048118
4355,0.0
4480,18093.857112693076
2,1, 1, 1, 0, 6, 0.00,60.00,Holiday
11,130000583.14932373
47,52754678.99999992
71,4835078.999999999
346,47919599.99999992
993,47320469.999999929
1017,47320469.999999929
1497,36481748.37971227
1533,0.0
1557,0.0
2228,1586646.3064167954
2366,1306100.7543172404
4122,28300604.17373199
4134,14101239.067933737
4171,14199365.105798256
4231,35175647.62539503
4244,6297.835715687315
4355,0.0
4480,31885.83345931626
2,1, 1, 1, 0, 7, 0.00,60.00,Holiday
11,191637701.13904367
47,74203478.99999988
71,4835078.999999999
346,69368399.9999999
993,68769269.9999999
1017,68769269.9999999
1497,425434113.33362528
1533,28597212.921243654
1557,28597212.921243654
2228,1599605.691941571
2366,1043361.9743467157
4122,47026954.83134655
4134,15034710.32706303
4171,14199365.105798256
4231,395793538.4380349
4244,6829.732316618712
4355,0.0
4480,31561.883439082667
2,1, 1, 1, 0, 8, 0.00,60.00,Holiday
11,184053043.87464077
47,74201420.57679664
71,4833020.576796753
346,69368399.9999999
993,68769269.9999999
1017,68769269.9999999
1497,283097864.7841345
1533,28597212.921243654
1557,28597212.921243654
2228,2461714.0455877615
2366,1324121.2258274374
4122,38582178.338051948
4134,13727223.903477099
4171,14199365.105798256
4231,253176530.63706345
4244,6944.604402195635
4355,0.0
4480,31516.30980229389
2,1, 1, 1, 0, 9, 0.00,60.00,Holiday
11,204397087.56805796
47,77881495.39931019
71,8513095.39931031
346,69368399.9999999
993,72641339.99999988
1017,72641339.99999988
1497,622936634.868706
1533,0.0
1557,0.0
2228,2505290.0138711228
2366,1337837.312792113
4122,49920191.8153072
4134,26429576.30230438
4171,14199365.105798256
4231,621598797.5559139
4244,98005.95294157241
4355,0.0
4480,1350764.38662797
2,1, 1, 1, 0,10, 0.00,60.00,Holiday
11,193110548.38655637
47,77868067.61583169
71,8499667.615831802
346,69368399.9999999
993,72641339.99999988
1017,72641339.99999988
1497,489193371.0882815
1533,0.0
1557,0.0
2228,2550740.079367133
2366,1361363.005923188
4122,39681003.8383041
4134,16526672.27872102
4171,14199365.105798256
4231,487832008.08235839
4244,66167.65555677796
4355,0.0
4480,303229.1974967251
2,1, 1, 1, 0,11, 0.00,60.00,Holiday
11,199817302.22758226
47,78328145.79652834
71,30408545.796528378
346,47919599.99999992
993,74424959.99999996
1017,74424959.99999996
1497,451284048.11639717
1533,0.0
1557,0.0
2228,5894800.166261597
2366,2234969.764886499
4122,41044834.658148888
4134,16363631.913820314
4171,14199365.105798256
4231,449049078.3515106
4244,47922.09983414179
4355,0.0
4480,76639.506809353
2,1, 1, 1, 0,12, 0.00,60.00,Holiday
11,198964488.60212178
47,78094936.02702964
71,30175336.027029683
346,47919599.99999992
993,74424959.99999996
1017,74424959.99999996
1497,435494697.1603875
1533,11438885.168497468
1557,11438885.168497468
2228,6020173.990695298
2366,2191418.275625882
4122,40323081.854249
4134,16360453.915327894
4171,14199365.105798256
4231,421864393.7162641
4244,44719.95158205461
4355,0.0
4480,56616.77856579969
2,1, 1, 1, 0,13, 0.00,60.00,Holiday
11,224331102.31687803
47,88439347.19452738
71,40519747.194527398
346,47919599.99999992
993,89913239.99999997
1017,89913239.99999997
1497,345521503.0587826
1533,11438885.168497468
1557,11438885.168497468
2228,7417584.43434659
2366,2456356.732616418
4122,38494112.348650399
4134,16360453.915327894
4171,14199365.105798256
4231,331626261.15766867
4244,32050.64797462519
4355,0.0
4480,34767.691379082644
2,1, 1, 1, 0,14, 0.00,60.00,Holiday
11,222331596.2928911
47,87896681.26292619
71,39977081.262926209
346,47919599.99999992
993,89913239.99999997
1017,89913239.99999997
1497,289078088.6892667
1533,0.0
1557,0.0
2228,7418262.982732444
2366,2475493.8252241995
4122,37043641.86860065
4134,16360453.915327894
4171,14199365.105798256
4231,286602594.8640425
4244,28489.711936489177
4355,0.0
4480,31280.46669537823
2,1, 1, 1, 0,15, 0.00,60.00,Holiday
11,222371943.10122068
47,88484146.68299526
71,40564546.68299528
346,47919599.99999992
993,89913239.99999997
1017,89913239.99999997
1497,273190077.02157178
1533,0.0
1557,0.0
2228,7255079.711336784
2366,2427233.6117344626
4122,36662456.76009308
4134,16360453.915327894
4171,14199365.105798256
4231,270762843.4098373
4244,26717.033628238692
4355,0.0
4480,30302.91316738278
2,1, 1, 1, 0,16, 0.00,60.00,Holiday
11,222538003.3981544
47,89044250.15826243
71,41124650.158262457
346,47919599.99999992
993,89913239.99999997
1017,89913239.99999997
1497,251888826.41258139
1533,0.0
1557,0.0
2228,7334586.817314192
2366,2138831.831467252
4122,36192187.23683636
4134,16360453.915327894
4171,14199365.105798256
4231,249749994.58111409
4244,24392.655082529738
4355,0.0
4480,29346.53065894041
2,1, 1, 1, 0,17, 0.00,60.00,Holiday
11,222682632.4994346
47,89656742.98933509
71,41737142.98933513
346,47919599.99999992
993,89913239.99999997
1017,89913239.99999997
1497,256391427.93741185
1533,28597212.921243654
1557,28597212.921243654
2228,7500894.057035218
2366,2445782.088345812
4122,35560682.04150213
4134,16360453.915327894
4171,14199365.105798256
4231,225348432.9278224
4244,22320.641092375976
4355,0.0
4480,28752.770469819818
2,1, 1, 1, 0,18, 0.00,60.00,Holiday
11,195375143.64766363
47,78647111.99999994
71,30727511.99999999
346,47919599.99999992
993,74424959.99999996
1017,74424959.99999996
1497,295748261.531873
1533,28597212.921243654
1557,28597212.921243654
2228,6366699.335158646
2366,2415734.4455595456
4122,35876548.16610564
4134,16360453.915327894
4171,14199365.105798256
4231,264735314.16506983
4244,28911.39281852974
4355,0.0
4480,30912.753580936052
2,1, 1, 1, 0,19, 0.00,60.00,Holiday
11,244561499.11796887
47,106749035.99999982
71,15931835.999999995
346,90817199.99999984
993,101834279.99999984
1017,101834279.99999984
1497,254004121.57437716
1533,28597212.921243654
1557,28597212.921243654
2228,5524130.695238136
2366,2007898.3173001817
4122,30379980.767694907
4134,14499580.727648085
4171,14199365.105798256
4231,223399010.3358333
4244,35982.61519625095
4355,0.0
4480,38089.039839833815
2,1, 1, 1, 0,20, 0.00,60.00,Holiday
11,271823443.2280975
47,124250678.9999998
71,4835078.999999999
346,119415599.9999998
993,118816469.99999982
1017,118816469.99999982
1497,8982306.276492566
1533,0.0
1557,0.0
2228,5752758.029819945
2366,1991037.7590822178
4122,23003536.198277844
4134,8458341.339612136
4171,14199365.105798256
4231,6991268.517410349
4244,0.0
4355,0.0
4480,0.0
2,1, 1, 1, 0,21, 0.00,60.00,Holiday
11,298095429.1256596
47,138549878.9999998
71,4835078.999999999
346,133714799.99999979
993,133115669.99999979
1017,133115669.99999979
1497,4160167.2252104955
1533,0.0
1557,0.0
2228,3649282.2990567057
2366,1721884.9134071405
4122,22780597.826603149
4134,8458341.339612136
4171,14199365.105798256
4231,2438282.311803355
4244,0.0
4355,0.0
4480,0.0
2,1, 1, 1, 0,22, 0.00,60.00,Holiday
11,269599745.97084936
47,124250678.9999998
71,4835078.999999999
346,119415599.9999998
993,118816469.99999982
1017,118816469.99999982
1497,10004854.975543898
1533,0.0
1557,0.0
2228,3463574.676733882
2366,1649408.044295746
4122,23069022.294115716
4134,8458341.339612136
4171,14199365.105798256
4231,8355446.931248153
4244,0.0
4355,0.0
4480,0.0
2,1, 1, 1, 0,23, 0.00,60.00,Holiday
11,210989945.87079359
47,95652278.99999984
71,4835078.999999999
346,90817199.99999984
993,90218069.99999985
1017,90218069.99999985
1497,1060698.7254149495
1533,0.0
1557,0.0
2228,2461890.4253834739
2366,1060698.7254149495
4122,22657706.445410395
4134,8458341.339612136
4171,14199365.105798256
4231,0.0
4244,0.0
4355,0.0
4480,0.0
2,1, 1, 1, 0,24, 0.00,60.00,Holiday
11,123526126.60059461
47,52754678.99999992
71,4835078.999999999
346,47919599.99999992
993,47320469.999999929
1017,47320469.999999929
1497,1297550.3967443978
1533,0.0
1557,0.0
2228,793271.1551842743
2366,1297550.3967443978
4122,22657706.445410395
4134,8458341.339612136
4171,14199365.105798256
4231,0.0
4244,0.0
4355,0.0
4480,0.0
2,2, 1, 2, 0, 1, 0.00,60.00,Friday
11,67096419.96418315
47,24156278.99999996
71,4835078.999999999
346,19321199.999999968
993,18722069.99999997
1017,18722069.99999997
1497,1029728.3292145818
1533,0.0
1557,0.0
2228,1560364.5187728042
2366,1029728.3292145818
4122,22657706.445410395
4134,8458341.339612136
4171,14199365.105798256
4231,0.0
4244,0.0
4355,0.0
4480,0.0
2,2, 1, 2, 0, 2, 0.00,60.00,Friday
11,66322676.98628403
47,24156278.99999996
71,4835078.999999999
346,19321199.999999968
993,18722069.99999997
1017,18722069.99999997
1497,1034847.9864812936
1533,0.0
1557,0.0
2228,786621.5408736932
2366,1034847.9864812936
4122,22657706.445410395
4134,8458341.339612136
4171,14199365.105798256
4231,0.0
4244,0.0
4355,0.0
4480,0.0
2,2, 1, 2, 0, 3, 0.00,60.00,Friday
11,66347976.91410414
47,24156278.99999996
71,4835078.999999999
346,19321199.999999968
993,18722069.99999997
1017,18722069.99999997
1497,1555157.1135531732
1533,0.0
1557,0.0
2228,786655.0920742875
2366,1035022.2116273455
4122,22682972.822029905
4134,8458341.339612136
4171,14199365.105798256
4231,520134.9019258276
4244,0.0
4355,0.0
4480,0.0
2,2, 1, 2, 0, 4, 0.00,60.00,Friday
11,71044365.52466223
47,24156278.99999996
71,4835078.999999999
346,19321199.999999968
993,18722069.99999997
1017,18722069.99999997
1497,5253741.863158781
1533,0.0
1557,0.0
2228,1560276.3692598805
2366,1029989.2846752375
4122,26587367.09252481
4134,12247012.660280388
4171,14199365.105798256
4231,4223752.578483544
4244,215.26096478222758
4355,0.0
4480,18157.801912794665
2,2, 1, 2, 0, 5, 0.00,60.00,Friday
11,70742123.55746125
47,24156278.99999996
71,4835078.999999999
346,19321199.999999968
993,18722069.99999997
1017,18722069.99999997
1497,16652925.890022764
1533,0.0
1557,0.0
2228,780215.5008341224
2366,1030021.8692702248
4122,27065147.46267441
4134,12253740.39796447
4171,14199365.105798256
4231,15622904.020752542
4244,485.10965281077287
4355,0.0
4480,17926.484299951622
2,2, 1, 2, 0, 6, 0.00,60.00,Friday
11,135539594.95573334
47,53890838.99999992
71,5971238.999999999
346,47919599.99999992
993,47871269.999999929
1017,47871269.999999929
1497,219317864.67284353
1533,0.0
1557,0.0
2228,780184.8514120777
2366,1036879.792641284
4122,32558739.8176352
4134,17885104.54839561
4171,14199365.105798256
4231,218280984.88020224
4244,41533.60866281978
4355,0.0
4480,397027.678023311
2,2, 1, 2, 0, 7, 0.00,60.00,Friday
11,221114424.1962363
47,80361638.99999988
71,5971238.999999999
346,74390399.99999988
993,69320069.9999999
1017,69320069.9999999
1497,1137502843.6880069
1533,28597212.921243654
1557,28597212.921243654
2228,780268.0036917288
2366,1197716.9152462483
4122,68480249.98892811
4134,27255016.113529099
4171,14199365.105798256
4231,1107707913.851517
4244,130537.94430186223
4355,0.0
4480,2041659.2593147974
2,2, 1, 2, 0, 8, 0.00,60.00,Friday
11,229324196.82332159
47,95985952.85082849
71,21595552.850828608
346,74390399.99999988
993,83139479.99999988
1017,83139479.99999988
1497,743013586.560234
1533,28882321.086319496
1557,28882321.086319496
2228,3431875.9873302227
2366,1792954.3635686006
4122,46003415.390756938
4134,16550310.53203775
4171,14199365.105798256
4231,712338311.1103459
4244,93035.89217565325
4355,0.0
4480,670436.7022303672
2,2, 1, 2, 0, 9, 0.00,60.00,Friday
11,286304459.6266809
47,125886704.67875567
71,51496304.67875579
346,74390399.99999988
993,112981499.99999987
1017,112981499.99999987
1497,552392254.2577508
1533,285108.16507584266
1557,285108.16507584266
2228,4628192.279641114
2366,2450904.2367977586
4122,42576661.037408787
4134,16360453.915327894
4171,14199365.105798256
4231,549656241.8558772
4244,66367.41804850087
4355,0.0
4480,165034.21282680869
2,2, 1, 2, 0,10, 0.00,60.00,Friday
11,342154079.342187
47,150941909.05356229
71,76551509.05356233
346,74390399.99999988
993,143958059.99999995
1017,143958059.99999995
1497,438426650.8591399
1533,285108.16507584266
1557,285108.16507584266
2228,6090966.947448071
2366,2770527.084744257
4122,41053073.72602048
4134,16401579.910826158
4171,14199365.105798256
4231,435371015.6093198
4244,44960.5141539235
4355,0.0
4480,65109.10100233425
2,2, 1, 2, 0,11, 0.00,60.00,Friday
11,302978386.26544949
47,129610778.83342675
71,76669178.83342676
346,52941599.9999999
993,122509259.99999996
1017,122509259.99999996
1497,437117522.64102128
1533,513194.69713651677
1557,513194.69713651677
2228,8990262.359564415
2366,3301240.569544088
4122,41774765.497959788
4134,16401569.247219168
4171,14199365.105798256
4231,433303087.3743407
4244,40872.57573470434
4355,0.0
4480,52446.99876392967
2,2, 1, 2, 0,12, 0.00,60.00,Friday
11,303607817.85862639
47,129163799.87131393
71,76222199.87131395
346,52941599.9999999
993,122509259.99999996
1017,122509259.99999996
1497,413057790.2896853
1533,11952079.865633984
1557,11952079.865633984
2228,11102768.386194447
2366,3992317.050877401
4122,40748132.83621223
4134,16568558.479813323
4171,14199365.105798256
4231,397113393.37317398
4244,37985.10447431756
4355,0.0
4480,45871.660431531665
2,2, 1, 2, 0,13, 0.00,60.00,Friday
11,299877301.4508717
47,126866697.73151107
71,73925097.7315111
346,52941599.9999999
993,122509259.99999996
1017,122509259.99999996
1497,334471642.19092157
1533,11952079.865633984
1557,11952079.865633984
2228,12682923.339826286
2366,4635674.766292475
4122,37746951.22597873
4134,16597379.712997545
4171,14199365.105798256
4231,317883887.55899509
4244,33646.23664691483
4355,0.0
4480,37822.91690881598
2,2, 1, 2, 0,14, 0.00,60.00,Friday
11,298762148.3233471
47,127665051.82302538
71,74723451.82302539
346,52941599.9999999
993,122509259.99999996
1017,122509259.99999996
1497,259257240.81250466
1533,513194.69713651677
1557,513194.69713651677
2228,12594366.319827585
2366,4319130.424061942
4122,35933904.73249632
4134,16651210.466592512
4171,14199365.105798256
4231,254424915.69130624
4244,27872.86372385062
4355,0.0
4480,31692.584274064662
2,2, 1, 2, 0,15, 0.00,60.00,Friday
11,295579440.3844312
47,127960730.32199788
71,75019130.3219979
346,52941599.9999999
993,122509259.99999996
1017,122509259.99999996
1497,230579068.23961664
1533,427662.2476137639
1557,427662.2476137639
2228,10063592.536849676
2366,3636934.825511575
4122,34989410.97087172
4134,16699745.748336934
4171,14199365.105798256
4231,226514471.1664913
4244,26003.96463830143
4355,0.0
4480,30442.590073688185
2,2, 1, 2, 0,16, 0.00,60.00,Friday
11,290492704.9040584
47,125161910.14159972
71,72220310.14159972
346,52941599.9999999
993,122509259.99999996
1017,122509259.99999996
1497,195162454.2957277
1533,427662.2476137639
1557,427662.2476137639
2228,9435207.133480858
2366,3152420.327592498
4122,33330565.82499793
4134,16844613.358975244
4171,14199365.105798256
4231,191582371.72052143
4244,25516.911111989546
4355,0.0
4480,30244.892867949904
2,2, 1, 2, 0,17, 0.00,60.00,Friday
11,295512750.95969119
47,130048062.34520079
71,77106462.34520082
346,52941599.9999999
993,122509259.99999996
1017,122509259.99999996
1497,237039386.2856477
1533,29024875.168857416
1557,29024875.168857416
2228,9176849.772760991
2366,3646179.2300178746
4122,33721072.27981708
4134,16827216.897357726
4171,14199365.105798256
4231,204368331.88677243
4244,26606.9619475027
4355,0.0
4480,30899.599964884743
2,2, 1, 2, 0,18, 0.00,60.00,Friday
11,286472927.3065431
47,123776342.99999996
71,70834742.99999997
346,52941599.9999999
993,118102859.99999997
1017,118102859.99999997
1497,293868611.89132246
1533,29024875.168857416
1557,29024875.168857416
2228,9377599.702812858
2366,3326868.0671903865
4122,35147988.6959241
4134,16674508.748758784
4171,14199365.105798256
4231,261516868.65527467
4244,32511.811069015454
4355,0.0
4480,35624.09673722167
2,2, 1, 2, 0,19, 0.00,60.00,Friday
11,320000851.5846354
47,143344268.99999986
71,47505068.99999999
346,95839199.99999984
993,135564839.99999989
1017,135564839.99999989
1497,276875577.51310417
1533,28597212.921243654
1557,28597212.921243654
2228,8598198.843696487
2366,2930889.728353446
4122,32402973.65551716
4134,16452888.876496913
4171,14199365.105798256
4231,245347474.86350707
4244,40598.458050394416
4355,0.0
4480,49971.627371519455
2,2, 1, 2, 0,20, 0.00,60.00,Friday
11,375017754.8876039
47,171942668.99999974
71,47505068.99999999
346,124437599.9999998
993,164163239.99999974
1017,164163239.99999974
1497,259576499.831528
1533,0.0
1557,0.0
2228,7257171.024230856
2366,2594450.977783291
4122,31532501.096663156
4134,16360659.869860912
4171,14199365.105798256
4231,256982048.85374473
4244,47441.984500070044
4355,0.0
4480,74731.78221021586
2,2, 1, 2, 0,21, 0.00,60.00,Friday
11,387544283.28010877
47,180270629.9999997
71,41533829.999999988
346,138736799.9999998
993,169616699.99999974
1017,169616699.99999974
1497,273755074.6863833
1533,0.0
1557,0.0
2228,6152953.2230904749
2366,2559024.5778230049
4122,31355407.640579087
4134,16360453.915327894
4171,14199365.105798256
4231,271196050.1085603
4244,51997.97040848137
4355,0.0
4480,96594.44603105894
2,2, 1, 2, 0,22, 0.00,60.00,Friday
11,306652262.4909496
47,143777915.9999998
71,19340315.999999998
346,124437599.9999998
993,132085079.9999998
1017,132085079.9999998
1497,135745402.46694339
1533,0.0
1557,0.0
2228,4625074.344997952
2366,1718630.9138278333
4122,26116972.053681457
4134,10319214.527291943
4171,14199365.105798256
4231,134026771.55311555
4244,17987.715757727387
4355,0.0
4480,29232.37651273819
2,2, 1, 2, 0,23, 0.00,60.00,Friday
11,215497826.00921829
47,96788438.99999984
71,5971238.999999999
346,90817199.99999984
993,90768869.99999985
1017,90768869.99999985
1497,114033104.6416145
1533,0.0
1557,0.0
2228,3370501.875565515
2366,1617600.602114339
4122,24518579.633090199
4134,10319214.527291943
4171,14199365.105798256
4231,112415504.03950016
4244,20126.832741690137
4355,0.0
4480,31308.667821122694
2,2, 1, 2, 0,24, 0.00,60.00,Friday
11,126265406.23439753
47,52754678.99999992
71,4835078.999999999
346,47919599.99999992
993,47320469.999999929
1017,47320469.999999929
1497,125778053.87317206
1533,0.0
1557,0.0
2228,1613592.9878928764
2366,1051013.6380312537
4122,24518579.633090199
4134,10319214.527291943
4171,14199365.105798256
4231,124727040.2351408
4244,22331.08589982974
4355,0.0
4480,35753.527514672816
2,3, 1, 3, 0, 1, 0.00,60.00,Saturday
11,68085546.74397908
47,24156278.99999996
71,4835078.999999999
346,19321199.999999968
993,18722069.99999997
1017,18722069.99999997
1497,2725960.4370954495
1533,0.0
1557,0.0
2228,2483399.2514801386
2366,1334150.4493868238
4122,22723798.492499006
4134,8458341.339612136
4171,14199365.105798256
4231,1391809.9877086257
4244,0.0
4355,0.0
4480,0.0
2,3, 1, 3, 0, 2, 0.00,60.00,Saturday
11,68226470.63289252
47,24156278.99999996
71,4835078.999999999
346,19321199.999999968
993,18722069.99999997
1017,18722069.99999997
1497,23455101.200000988
1533,0.0
1557,0.0
2228,1641323.4178527962
2366,1327240.6507311033
4122,23706798.21503979
4134,8458341.339612136
4171,14199365.105798256
4231,22127860.54926988
4244,0.0
4355,0.0
4480,0.0
2,3, 1, 3, 0, 3, 0.00,60.00,Saturday
11,70083241.6183488
47,24156278.99999996
71,4835078.999999999
346,19321199.999999968
993,18722069.99999997
1017,18722069.99999997
1497,62660023.70504971
1533,0.0
1557,0.0
2228,1613336.887961955
2366,1313729.151618798
4122,25591555.73038691
4134,8458341.339612136
4171,14199365.105798256
4231,61346294.553430918
4244,0.0
4355,0.0
4480,0.0
2,3, 1, 3, 0, 4, 0.00,60.00,Saturday
11,71981458.30159334
47,24156278.99999996
71,4835078.999999999
346,19321199.999999968
993,18722069.99999997
1017,18722069.99999997
1497,99929420.88024152
1533,0.0
1557,0.0
2228,1586557.0896104978
2366,1040106.4672297111
4122,27516552.211982885
4134,8458341.339612136
4171,14199365.105798256
4231,98889314.41301182
4244,0.0
4355,0.0
4480,0.0
2,3, 1, 3, 0, 5, 0.00,60.00,Saturday
11,77243783.25776807
47,24156278.99999996
71,4835078.999999999
346,19321199.999999968
993,18722069.99999997
1017,18722069.99999997
1497,146801986.75914217
1533,0.0
1557,0.0
2228,1586491.4571544408
2366,1040406.6288826136
4122,32765216.542871324
4134,11304890.633376386
4171,14199365.105798256
4231,145761580.1302595
4244,99.54362959579132
4355,0.0
4480,13626.714112739668
2,3, 1, 3, 0, 6, 0.00,60.00,Saturday
11,142730853.69193659
47,52754678.99999992
71,4835078.999999999
346,47919599.99999992
993,47320469.999999929
1017,47320469.999999929
1497,383084106.055021
1533,0.0
1557,0.0
2228,793331.1955134084
2366,1309128.0700527272
4122,41063670.442939478
4134,20143743.43084383
4171,14199365.105798256
4231,381774977.9849682
4244,50380.491506239305
4355,0.0
4480,748322.5619774773
2,3, 1, 3, 0, 7, 0.00,60.00,Saturday
11,238301584.3460245
47,80361638.99999988
71,5971238.999999999
346,74390399.99999988
993,69320069.9999999
1017,69320069.9999999
1497,1548377187.8567138
1533,28597212.921243654
1557,28597212.921243654
2228,1600009.2650619543
2366,1073602.987239104
4122,84384143.8189634
4134,29678060.76247884
4171,14199365.105798256
4231,1518706371.9482313
4244,158622.45148382925
4355,0.0
4480,2477099.8105155478
2,3, 1, 3, 0, 8, 0.00,60.00,Saturday
11,220309261.4026886
47,83782414.4752277
71,9392014.475227833
346,74390399.99999988
993,73192139.99999988
1017,73192139.99999988
1497,1119828306.1037405
1533,28597212.921243654
1557,28597212.921243654
2228,4493973.626543967
2366,1961648.3485772976
4122,57239895.03227267
4134,16872835.179182307
4171,14199365.105798256
4231,1089269444.8339194
4244,131078.88006467653
4355,0.0
4480,1469759.3885796914
2,3, 1, 3, 0, 9, 0.00,60.00,Saturday
11,242595528.4257389
47,100573975.4210542
71,26183575.421054327
346,74390399.99999988
993,90883619.99999987
1017,90883619.99999987
1497,733212736.4496907
1533,285108.16507584266
1557,285108.16507584266
2228,4671425.039630195
2366,2051193.350860627
4122,45543932.9791981
4134,16399593.123715587
4171,14199365.105798256
4231,730876434.9337542
4244,99662.98767902889
4355,0.0
4480,822911.9981774777
2,3, 1, 3, 0,10, 0.00,60.00,Saturday
11,276522365.1686167
47,118194410.32323271
71,43804010.323232848
346,74390399.99999988
993,114116039.99999988
1017,114116039.99999988
1497,464036392.1337967
1533,285108.16507584266
1557,285108.16507584266
2228,5778435.6068569109
2366,2421118.7344145535
4122,38168659.64027766
4134,16401618.444001979
4171,14199365.105798256
4231,461330165.23430636
4244,66537.87968989113
4355,0.0
4480,198281.71855963709
2,3, 1, 3, 0,11, 0.00,60.00,Saturday
11,277286242.3552584
47,117593180.91344592
71,64651580.913445938
346,52941599.9999999
993,115899659.99999997
1017,115899659.99999997
1497,333844698.4447609
1533,513194.69713651677
1557,513194.69713651677
2228,7956645.86132173
2366,2920351.068484838
4122,35721827.08564696
4134,16476766.200023374
4171,14199365.105798256
4231,330411152.67913958
4244,45730.446189166316
4355,0.0
4480,69198.04865472164
2,3, 1, 3, 0,12, 0.00,60.00,Saturday
11,278766534.82022169
47,117709677.75441137
71,64768077.754411388
346,52941599.9999999
993,115899659.99999997
1017,115899659.99999997
1497,276359084.9600617
1533,11952079.865633984
1557,11952079.865633984
2228,11201650.28020143
2366,3354961.502045515
4122,33870802.91975776
4134,16638902.57945476
4171,14199365.105798256
4231,261052043.59238226
4244,38452.470126653134
4355,0.0
4480,46291.39572454788
2,3, 1, 3, 0,13, 0.00,60.00,Saturday
11,274610234.85833856
47,114418003.54908556
71,61476403.54908557
346,52941599.9999999
993,114247259.99999997
1017,114247259.99999997
1497,235163274.75625948
1533,11952079.865633984
1557,11952079.865633984
2228,12236877.755747602
2366,3665740.009269949
4122,32962932.59302556
4134,16712583.735254944
4171,14199365.105798256
4231,219545454.88135553
4244,33823.32123166493
4355,673368.0051592896
4480,37969.6340888999
2,3, 1, 3, 0,14, 0.00,60.00,Saturday
11,275074323.8733413
47,114496433.65756232
71,61554833.65756233
346,52941599.9999999
993,114247259.99999997
1017,114247259.99999997
1497,192174133.28689636
1533,513194.69713651677
1557,513194.69713651677
2228,11601812.08912196
2366,3727527.1159816479
4122,32730842.408009266
4134,16934894.147118849
4171,14199365.105798256
4231,187933411.47377817
4244,29732.157272696575
4355,1935444.3692866427
4480,32799.19208857625
2,3, 1, 3, 0,15, 0.00,60.00,Saturday
11,274177926.0640042
47,114669079.073469
71,61727479.07346901
346,52941599.9999999
993,114247259.99999997
1017,114247259.99999997
1497,166642707.39234893
1533,427662.2476137639
1557,427662.2476137639
2228,9961395.064665178
2366,3215016.4665467508
4122,32723153.4105057
4134,17276306.692683989
4171,14199365.105798256
4231,163000028.67818839
4244,26221.963590283405
4355,2520511.2260030799
4480,30305.325771114083
2,3, 1, 3, 0,16, 0.00,60.00,Saturday
11,272499278.5213915
47,113615589.87360834
71,60673989.87360835
346,52941599.9999999
993,114247259.99999997
1017,114247259.99999997
1497,158094452.71251879
1533,427662.2476137639
1557,427662.2476137639
2228,9766969.487914356
2366,3126501.927803636
4122,32868806.86186749
4134,17583152.39731281
4171,14199365.105798256
4231,154540288.5371014
4244,24676.211038078687
4355,1946449.0865060434
4480,29527.000457307
2,3, 1, 3, 0,17, 0.00,60.00,Saturday
11,274697063.736382
47,117385251.56349983
71,64443651.563499849
346,52941599.9999999
993,114247259.99999997
1017,114247259.99999997
1497,201718709.41702277
1533,29024875.168857416
1557,29024875.168857416
2228,9673971.393430656
2366,3115072.5083184896
4122,32881276.47913015
4134,17808365.14287117
4171,14199365.105798256
4231,169578761.73984687
4244,27375.310454164188
4355,450851.5336979318
4480,31077.45616935769
2,3, 1, 3, 0,18, 0.00,60.00,Saturday
11,267198688.7099512
47,111937382.99999996
71,64017782.99999998
346,47919599.99999992
993,113145659.99999997
1017,113145659.99999997
1497,245984906.9610935
1533,28597212.921243654
1557,28597212.921243654
2228,9548037.176223923
2366,2719441.5377899284
4122,32492317.712605619
4134,17113960.164061794
4171,14199365.105798256
4231,214668252.50205989
4244,35293.7988206682
4355,0.0
4480,39997.022301142526
2,3, 1, 3, 0,19, 0.00,60.00,Saturday
11,294718712.1399219
47,128942549.99999987
71,38125349.999999988
346,90817199.99999984
993,125066699.99999988
1017,125066699.99999988
1497,286191586.25505658
1533,28597212.921243654
1557,28597212.921243654
2228,9311364.403650096
2366,2814041.014625283
4122,31271229.188480155
4134,16360453.915327894
4171,14199365.105798256
4231,254780332.31918759
4244,47730.9306181007
4355,0.0
4480,79137.61717377408
2,3, 1, 3, 0,20, 0.00,60.00,Saturday
11,317464094.96729639
47,142745273.9999998
71,23329673.999999994
346,119415599.9999998
993,138176819.9999998
1017,138176819.9999998
1497,232053022.70299677
1533,0.0
1557,0.0
2228,7282467.140390826
2366,2463070.9301943008
4122,29142500.35696584
4134,14499580.727648085
4171,14199365.105798256
4231,229589951.77280245
4244,43110.27876123131
4355,0.0
4480,73923.19117873945
2,3, 1, 3, 0,21, 0.00,60.00,Saturday
11,344919489.52663907
47,157044473.99999977
71,23329673.999999994
346,133714799.99999979
993,152476019.99999977
1017,152476019.99999977
1497,258683902.85602135
1533,0.0
1557,0.0
2228,6020165.647139137
2366,2068631.4282647544
4122,29233377.90896844
4134,14499580.727648085
4171,14199365.105798256
4231,256615271.4277566
4244,49265.449898152525
4355,0.0