Program Version,EnergyPlus, Version 9.0.1-bb7ca4f0da, YMD=2019.12.18 15:07
1,5,Environment Title[],Latitude[deg],Longitude[deg],Time Zone[],Elevation[m]
2,8,Day of Simulation[],Month[],Day of Month[],DST Indicator[1=yes 0=no],Hour[],StartMinute[],EndMinute[],DayType
3,5,Cumulative Day of Simulation[],Month[],Day of Month[],DST Indicator[1=yes 0=no],DayType  ! When Daily Meters Requested
4,2,Cumulative Days of Simulation[],Month[]  ! When Monthly Meters Requested
5,1,Cumulative Days of Simulation[] ! When Run Period Meters Requested
6,1,Calendar Year of Simulation[] ! When Annual Meters Requested
4231,1,Heating:Gas [J] !Hourly
2366,1,WaterSystems:Gas [J] !Hourly
1497,1,Gas:Facility [J] !Hourly
2228,1,WaterSystems:Electricity [J] !Hourly
47,1,InteriorLights:Electricity [J] !Hourly
11,1,Electricity:Facility [J] !Hourly
993,1,InteriorEquipment:Electricity [J] !Hourly
4122,1,Fans:Electricity [J] !Hourly
4480,1,Pumps:Electricity [J] !Hourly
4244,1,Heating:Electricity [J] !Hourly
4355,1,Cooling:Electricity [J] !Hourly
1533,1,InteriorEquipment:Gas [J] !Hourly
1017,1,Receptacle:InteriorEquipment:Electricity [J] !Hourly
1557,1,Receptacle:InteriorEquipment:Gas [J] !Hourly
71,1,ComplianceLtg:InteriorLights:Electricity [J] !Hourly
346,1,NonComplianceLtg:InteriorLights:Electricity [J] !Hourly
4134,1,General:Fans:Electricity [J] !Hourly
4171,1,ProcessMotors:Fans:Electricity [J] !Hourly
End of Data Dictionary
1,ARCATA_725945_CZ2010,  40.98,-124.10,  -8.00,  62.00
2,1, 1, 1, 0, 1, 0.00,60.00,Holiday
11,55793666.50728115
47,24156278.99999996
71,4835078.999999999
346,19321199.999999968
993,18722069.99999997
1017,18722069.99999997
1497,1044912.2061461109
1533,0.0
1557,0.0
2228,882180.5436654607
2366,1044912.2061461109
4122,12033136.963615733
4134,8488078.333418435
4171,3545058.6301972984
4231,0.0
4244,0.0
4355,0.0
4480,0.0
2,1, 1, 1, 0, 2, 0.00,60.00,Holiday
11,56446272.46084659
47,24156278.99999996
71,4835078.999999999
346,19321199.999999968
993,18722069.99999997
1017,18722069.99999997
1497,1416314.457002866
1533,0.0
1557,0.0
2228,1523093.2948352653
2366,1106540.1949569719
4122,12044830.166011364
4134,8488078.333418435
4171,3545058.6301972984
4231,309774.26204589419
4244,0.0
4355,0.0
4480,0.0
2,1, 1, 1, 0, 3, 0.00,60.00,Holiday
11,60336548.41848072
47,24156278.99999996
71,4835078.999999999
346,19321199.999999968
993,18722069.99999997
1017,18722069.99999997
1497,3225174.053241687
1533,0.0
1557,0.0
2228,1603721.9630173199
2366,1244820.49654426
4122,15836084.558888849
4134,12241096.460258212
4171,3545058.6301972984
4231,1980353.5566974269
4244,110.56192618376446
4355,0.0
4480,18282.334648404612
2,1, 1, 1, 0, 4, 0.00,60.00,Holiday
11,60510072.68651469
47,24156278.99999996
71,4835078.999999999
346,19321199.999999968
993,18722069.99999997
1017,18722069.99999997
1497,6416813.310990596
1533,0.0
1557,0.0
2228,1589565.465538043
2366,1039617.9396556857
4122,16023759.728710564
4134,12348426.368863274
4171,3545058.6301972984
4231,5377195.37133491
4244,283.1399589728788
4355,0.0
4480,18115.35230715792
2,1, 1, 1, 0, 5, 0.00,60.00,Holiday
11,60736008.249353218
47,24156278.99999996
71,4835078.999999999
346,19321199.999999968
993,18722069.99999997
1017,18722069.99999997
1497,14866322.651440673
1533,0.0
1557,0.0
2228,1589495.3415020558
2366,1242214.2850138902
4122,16249736.488766997
4134,12348426.368863274
4171,3545058.6301972984
4231,13624108.36642678
4244,573.7083404424972
4355,0.0
4480,17853.71074376416
2,1, 1, 1, 0, 6, 0.00,60.00,Holiday
11,118791104.63462407
47,52754678.99999992
71,4835078.999999999
346,47919599.99999992
993,47320469.999999929
1017,47320469.999999929
1497,50881174.33375178
1533,0.0
1557,0.0
2228,794773.8374248778
2366,1104528.6812195865
4122,17882343.35406299
4134,14207290.27703131
4171,3545058.6301972984
4231,49776645.65253219
4244,8243.070257139327
4355,0.0
4480,30595.372879107847
2,1, 1, 1, 0, 7, 0.00,60.00,Holiday
11,180583991.17897157
47,74203478.99999988
71,4835078.999999999
346,69368399.9999999
993,68769269.9999999
1017,68769269.9999999
1497,584057848.6812655
1533,28597212.921243654
1557,28597212.921243654
2228,1603617.9415906945
2366,1148469.8966294579
4122,35969063.77819204
4134,15494072.955512923
4171,3545058.630197298
4231,554312165.8633925
4244,7562.800375014397
4355,0.0
4480,30997.658813952556
2,1, 1, 1, 0, 8, 0.00,60.00,Holiday
11,172805766.96806333
47,74190773.33067349
71,4822373.330673599
346,69368399.9999999
993,68769269.9999999
1017,68769269.9999999
1497,359302213.1424767
1533,28597212.921243654
1557,28597212.921243654
2228,2470603.759159169
2366,1222461.3652600358
4122,27336651.541846023
4134,14207290.27703131
4171,3545058.6301972984
4231,329482538.855973
4244,7151.642568929676
4355,0.0
4480,31316.693815794093
2,1, 1, 1, 0, 9, 0.00,60.00,Holiday
11,189496303.56043048
47,77458266.95595426
71,8089866.955954378
346,69368399.9999999
993,72641339.99999988
1017,72641339.99999988
1497,653957392.635565
1533,0.0
1557,0.0
2228,2516265.472111427
2366,1545715.8067416615
4122,35392883.191698458
4134,24672148.166760468
4171,3545058.6301972984
4231,652411676.8288235
4244,98202.34531387601
4355,0.0
4480,1389345.5953525282
2,1, 1, 1, 0,10, 0.00,60.00,Holiday
11,180546540.71260468
47,77451121.14334968
71,8082721.143349804
346,69368399.9999999
993,72641339.99999988
1017,72641339.99999988
1497,523047617.80517658
1533,0.0
1557,0.0
2228,3416889.096394472
2366,1421157.9282573588
4122,26662486.24303244
4134,16570567.326720812
4171,3545058.6301972984
4231,521626459.87691929
4244,70179.00205787043
4355,0.0
4480,304525.2277702648
2,1, 1, 1, 0,11, 0.00,60.00,Holiday
11,185619463.42049218
47,77795314.82580559
71,29875714.825805636
346,47919599.99999992
993,74424959.99999996
1017,74424959.99999996
1497,481541107.1806168
1533,0.0
1557,0.0
2228,5966080.651137038
2366,2067440.3188987384
4122,27291111.295675655
4134,16367070.305321709
4171,3545058.6301972984
4231,479473666.86171808
4244,52257.42227984874
4355,0.0
4480,89739.22559412633
2,1, 1, 1, 0,12, 0.00,60.00,Holiday
11,183145783.31612266
47,76685576.64225662
71,28765976.642256664
346,47919599.99999992
993,74424959.99999996
1017,74424959.99999996
1497,423193188.89747497
1533,11438885.168497468
1557,11438885.168497468
2228,6196765.208742022
2366,2404112.189671196
4122,25732195.689810654
4134,16360750.220335668
4171,3545058.6301972984
4231,409350191.5393063
4244,46194.458826066955
4355,0.0
4480,60091.31648733975
2,1, 1, 1, 0,13, 0.00,60.00,Holiday
11,210421948.18839056
47,87437473.23202646
71,39517873.232026498
346,47919599.99999992
993,89913239.99999997
1017,89913239.99999997
1497,369026011.3980006
1533,11438885.168497468
1557,11438885.168497468
2228,7819236.108215574
2366,2478311.1390162159
4122,25172985.529202857
4134,16360750.220335668
4171,3545058.6301972984
4231,355108815.0904869
4244,37200.197993681424
4355,0.0
4480,41813.12095202295
2,1, 1, 1, 0,14, 0.00,60.00,Holiday
11,210467872.32597629
47,87608532.64498724
71,39688932.64498727
346,47919599.99999992
993,89913239.99999997
1017,89913239.99999997
1497,349157510.6921802
1533,0.0
1557,0.0
2228,7822530.357464518
2366,2498934.0275893027
4122,25046173.614537457
4134,16360750.220335668
4171,3545058.6301972984
4231,346658576.6645909
4244,36115.64133231211
4355,0.0
4480,41280.06765480347
2,1, 1, 1, 0,15, 0.00,60.00,Holiday
11,209414877.527444
47,87651896.66020498
71,39732296.66020501
346,47919599.99999992
993,89913239.99999997
1017,89913239.99999997
1497,340941704.62907019
1533,0.0
1557,0.0
2228,6806341.740658861
2366,2448248.354197337
4122,24969165.28940015
4134,16360750.220335668
4171,3545058.6301972984
4231,338493456.2748729
4244,34676.131677445475
4355,0.0
4480,39557.70550258529
2,1, 1, 1, 0,16, 0.00,60.00,Holiday
11,212244743.28238548
47,89300166.79390821
71,41380566.79390822
346,47919599.99999992
993,89913239.99999997
1017,89913239.99999997
1497,351027078.49042019
1533,0.0
1557,0.0
2228,7345526.469164505
2366,2449833.4173370117
4122,25616260.32337206
4134,16360750.220335668
4171,3545058.6301972984
4231,348577245.07308319
4244,32711.797074936047
4355,0.0
4480,36837.89886581557
2,1, 1, 1, 0,17, 0.00,60.00,Holiday
11,214229246.43736536
47,89703200.08297658
71,41783600.082976598
346,47919599.99999992
993,89913239.99999997
1017,89913239.99999997
1497,412039548.15092149
1533,28597212.921243654
1557,28597212.921243654
2228,8261010.061931803
2366,2480229.534358533
4122,26274658.99331004
4134,16360750.220335668
4171,3545058.6301972984
4231,380962105.6953193
4244,35732.550911679886
4355,0.0
4480,41404.74823525792
2,1, 1, 1, 0,18, 0.00,60.00,Holiday
11,187245991.40294973
47,78647111.99999994
71,30727511.99999999
346,47919599.99999992
993,74424959.99999996
1017,74424959.99999996
1497,485144411.9045793
1533,28597212.921243654
1557,28597212.921243654
2228,6803021.6578838829
2366,2434591.1906608028
4122,27261938.186103994
4134,16360750.220335668
4171,3545058.6301972984
4231,454112607.7926748
4244,46200.91319389133
4355,0.0
4480,62758.645768038215
2,1, 1, 1, 0,19, 0.00,60.00,Holiday
11,236837749.16454319
47,106749035.99999982
71,15931835.999999995
346,90817199.99999984
993,101834279.99999984
1017,101834279.99999984
1497,401412011.02328786
1533,28597212.921243654
1557,28597212.921243654
2228,5666154.876203245
2366,1769286.935491229
4122,22472321.817207315
4134,14501886.312167634
4171,3545058.6301972984
4231,371045511.1665529
4244,47767.070296544785
4355,0.0
4480,68189.40083626047
2,1, 1, 1, 0,20, 0.00,60.00,Holiday
11,262444591.39078988
47,124250678.9999998
71,4835078.999999999
346,119415599.9999998
993,118816469.99999982
1017,118816469.99999982
1497,46885921.84418327
1533,0.0
1557,0.0
2228,5838047.6092396159
2366,2100125.2927923884
4122,13539394.781550495
4134,8488078.333418435
4171,3545058.630197298
4231,44785796.55139089
4244,0.0
4355,0.0
4480,0.0
2,1, 1, 1, 0,21, 0.00,60.00,Holiday
11,289040719.0304328
47,138549878.9999998
71,4835078.999999999
346,133714799.99999979
993,133115669.99999979
1017,133115669.99999979
1497,24299020.528509026
1533,0.0
1557,0.0
2228,4571830.983158927
2366,1882009.0168800818
4122,12803339.047274227
4134,8488078.333418435
4171,3545058.6301972984
4231,22417011.51162894
4244,0.0
4355,0.0
4480,0.0
2,1, 1, 1, 0,22, 0.00,60.00,Holiday
11,259878950.09338803
47,124250678.9999998
71,4835078.999999999
346,119415599.9999998
993,118816469.99999982
1017,118816469.99999982
1497,40221948.158214349
1533,0.0
1557,0.0
2228,3481845.761273049
2366,1657365.791325915
4122,13329955.332115243
4134,8488078.333418435
4171,3545058.6301972984
4231,38564582.36688843
4244,0.0
4355,0.0
4480,0.0
2,1, 1, 1, 0,23, 0.00,60.00,Holiday
11,199550697.33065406
47,95652278.99999984
71,4835078.999999999
346,90817199.99999984
993,90218069.99999985
1017,90218069.99999985
1497,1303907.9232521984
1533,0.0
1557,0.0
2228,1647211.3670385294
2366,1303907.9232521984
4122,12033136.96361573
4134,8488078.333418435
4171,3545058.630197298
4231,0.0
4244,0.0
4355,0.0
4480,0.0
2,1, 1, 1, 0,24, 0.00,60.00,Holiday
11,113698017.50312147
47,52754678.99999992
71,4835078.999999999
346,47919599.99999992
993,47320469.999999929
1017,47320469.999999929
1497,1062706.0850539949
1533,0.0
1557,0.0
2228,1589731.5395057719
2366,1062706.0850539949
4122,12033136.963615733
4134,8488078.333418435
4171,3545058.6301972984
4231,0.0
4244,0.0
4355,0.0
4480,0.0
2,2, 1, 2, 0, 1, 0.00,60.00,Friday
11,55692707.3818211
47,24156278.99999996
71,4835078.999999999
346,19321199.999999968
993,18722069.99999997
1017,18722069.99999997
1497,1031406.3621050248
1533,0.0
1557,0.0
2228,781221.4182054197
2366,1031406.3621050248
4122,12033136.963615733
4134,8488078.333418435
4171,3545058.6301972984
4231,0.0
4244,0.0
4355,0.0
4480,0.0
2,2, 1, 2, 0, 2, 0.00,60.00,Friday
11,56562051.04634335
47,24156278.99999996
71,4835078.999999999
346,19321199.999999968
993,18722069.99999997
1017,18722069.99999997
1497,3151269.9383085558
1533,0.0
1557,0.0
2228,1575882.903692702
2366,1036537.188389651
4122,12107819.14265069
4134,8488078.333418435
4171,3545058.6301972984
4231,2114732.749918904
4244,0.0
4355,0.0
4480,0.0
2,2, 1, 2, 0, 3, 0.00,60.00,Friday
11,60091385.63635682
47,24156278.99999996
71,4835078.999999999
346,19321199.999999968
993,18722069.99999997
1017,18722069.99999997
1497,17021206.677265757
1533,0.0
1557,0.0
2228,788027.2133948165
2366,1036746.8808759716
4122,16406615.951463819
4134,12343365.237483308
4171,3545058.6301972984
4231,15984459.796389787
4244,195.78096075126363
4355,0.0
4480,18197.690537478396
2,2, 1, 2, 0, 4, 0.00,60.00,Friday
11,60942105.380322467
47,24156278.99999996
71,4835078.999999999
346,19321199.999999968
993,18722069.99999997
1017,18722069.99999997
1497,45178915.806524228
1533,0.0
1557,0.0
2228,781279.8901790526
2366,1031530.3723039774
4122,17264059.196758637
4134,12348426.368863276
4171,3545058.6301972984
4231,44147385.43422025
4244,561.8001264472555
4355,0.0
4480,17855.493258373885
2,2, 1, 2, 0, 5, 0.00,60.00,Friday
11,62461787.93854169
47,24156278.99999996
71,4835078.999999999
346,19321199.999999968
993,18722069.99999997
1017,18722069.99999997
1497,68854519.38490825
1533,0.0
1557,0.0
2228,1562354.9702512902
2366,1172532.524583819
4122,18002620.572876418
4134,12348426.368863276
4171,3545058.6301972984
4231,67681986.86032443
4244,779.513880867252
4355,0.0
4480,17683.881533148975
2,2, 1, 2, 0, 6, 0.00,60.00,Friday
11,131429457.31457077
47,53890838.99999992
71,5971238.999999999
346,47919599.99999992
993,47871269.999999929
1017,47871269.999999929
1497,281991437.4667067
1533,0.0
1557,0.0
2228,781328.833756887
2366,1155962.676281338
4122,27070761.804095895
4134,22248925.537809649
4171,3545058.6301972984
4231,280835474.79042538
4244,49306.797251383694
4355,1053178.941435813
4480,712771.9380308742
2,2, 1, 2, 0, 7, 0.00,60.00,Friday
11,208109273.5100944
47,80361638.99999988
71,5971238.999999999
346,74390399.99999988
993,69320069.9999999
1017,69320069.9999999
1497,1313957323.2889977
1533,28597212.921243654
1557,28597212.921243654
2228,781122.0175444426
2366,1036012.8495960024
4122,55354684.69500842
4134,28750353.31230603
4171,3545058.6301972984
4231,1284324097.518158
4244,135400.13062688075
4355,40294.53240392066
4480,2116063.13451092
2,2, 1, 2, 0, 8, 0.00,60.00,Friday
11,217380291.64047802
47,95999149.24177122
71,21608749.241771349
346,74390399.99999988
993,83139479.99999988
1017,83139479.99999988
1497,866334741.6637523
1533,28882321.086319496
1557,28882321.086319496
2228,3450331.2854496876
2366,1697033.7205832722
4122,33810189.24535904
4134,16711609.665194562
4171,3545058.6301972984
4231,835755386.8568497
4244,98739.23811664849
4355,0.0
4480,882402.6297814341
2,2, 1, 2, 0, 9, 0.00,60.00,Friday
11,274928504.66703477
47,126039058.57671359
71,51648658.57671371
346,74390399.99999988
993,112981499.99999987
1017,112981499.99999987
1497,668854696.2993202
1533,285108.16507584266
1557,285108.16507584266
2228,4669745.019713177
2366,2474285.181477216
4122,30936395.04103825
4134,16368588.377071742
4171,3545058.6301972984
4231,666095302.9527671
4244,73161.73057936912
4355,0.0
4480,228644.2989903537
2,2, 1, 2, 0,10, 0.00,60.00,Friday
11,332608305.3032734
47,151182108.9867618
71,76791708.98676184
346,74390399.99999988
993,143958059.99999995
1017,143958059.99999995
1497,586006815.9087738
1533,285108.16507584266
1557,285108.16507584266
2228,7136153.819697602
2366,2973049.568792252
4122,30138630.76071196
4134,16422537.531613108
4171,3545058.630197298
4231,582748658.1749057
4244,57657.38863563989
4355,0.0
4480,135694.34746643256
2,2, 1, 2, 0,11, 0.00,60.00,Friday
11,288900059.207586
47,127790575.35014604
71,74848975.35014606
346,52941599.9999999
993,122509259.99999996
1017,122509259.99999996
1497,585907308.2088001
1533,513194.69713651677
1557,513194.69713651677
2228,8095534.15978636
2366,3524216.4597591876
4122,30316552.708499686
4134,16423052.449262277
4171,3545058.6301972984
4231,581869897.0519043
4244,55810.3118641602
4355,0.0
4480,132326.67728978475
2,2, 1, 2, 0,12, 0.00,60.00,Friday
11,289853164.31103196
47,126223571.11511801
71,73281971.11511803
346,52941599.9999999
993,122509259.99999996
1017,122509259.99999996
1497,533481286.94887039
1533,11952079.865633984
1557,11952079.865633984
2228,12409694.242124737
2366,4088022.8764290737
4122,28529453.079202728
4134,16629162.665095509
4171,3545058.6301972984
4231,517441184.2068073
4244,54429.51183506824
4355,0.0
4480,126756.36275151208
2,2, 1, 2, 0,13, 0.00,60.00,Friday
11,286824296.2138408
47,125190520.36212494
71,72248920.36212495
346,52941599.9999999
993,122509259.99999996
1017,122509259.99999996
1497,429173299.47000518
1533,11952079.865633984
1557,11952079.865633984
2228,13022138.918508083
2366,4766102.246204105
4122,25969313.254604859
4134,16670078.994131063
4171,3545058.6301972984
4231,412455117.35816708
4244,47432.384178380125
4355,0.0
4480,85631.29442462555
2,2, 1, 2, 0,14, 0.00,60.00,Friday
11,283792202.93804588
47,124624973.9859934
71,71683373.98599342
346,52941599.9999999
993,122509259.99999996
1017,122509259.99999996
1497,316542442.0131628
1533,513194.69713651677
1557,513194.69713651677
2228,12648489.728156159
2366,4443481.217417237
4122,23920114.706667086
4134,16743974.018018512
4171,3545058.6301972984
4231,311585766.09860906
4244,38192.07441639404
4355,0.0
4480,51172.44281287609
2,2, 1, 2, 0,15, 0.00,60.00,Friday
11,282126338.74758508
47,124704598.97704515
71,71762998.97704518
346,52941599.9999999
993,122509259.99999996
1017,122509259.99999996
1497,326534445.8356926
1533,427662.2476137639
1557,427662.2476137639
2228,10885502.046509918
2366,3702738.878353316
4122,23927543.727612109
4134,16817912.049710156
4171,3545058.6301972984
4231,322404044.7097255
4244,40829.07636070859
4355,0.0
4480,58604.920057223426
2,2, 1, 2, 0,16, 0.00,60.00,Friday
11,281047430.94770196
47,124782661.78840523
71,71841061.78840524
346,52941599.9999999
993,122509259.99999996
1017,122509259.99999996
1497,360560431.8965579
1533,427662.2476137639
1557,427662.2476137639
2228,9305027.52744959
2366,3504254.591306324
4122,24315683.52437086
4134,16972165.401801509
4171,3545058.6301972984
4231,356628515.0576378
4244,47061.10200103893
4355,0.0
4480,87737.0054752573
2,2, 1, 2, 0,17, 0.00,60.00,Friday
11,285737393.1410976
47,128617177.98763688
71,75675577.9876369
346,52941599.9999999
993,122509259.99999996
1017,122509259.99999996
1497,408980443.83644726
1533,29024875.168857416
1557,29024875.168857416
2228,9655856.413936425
2366,3628808.361032699
4122,24808502.737931629
4134,16961582.505420627
4171,3545058.6301972984
4231,376326760.3065571
4244,48419.245046250886
4355,0.0
4480,98176.75654641672
2,2, 1, 2, 0,18, 0.00,60.00,Friday
11,278021770.8781699
47,123776342.99999996
71,70834742.99999997
346,52941599.9999999
993,118102859.99999997
1017,118102859.99999997
1497,457386021.77567389
1533,29024875.168857416
1557,29024875.168857416
2228,9967086.493873634
2366,3313204.361180704
4122,26024123.40157274
4134,16757020.520244809
4171,3545058.6301972984
4231,425047942.24563577
4244,50592.396370883114
4355,0.0
4480,100765.58635277127
2,2, 1, 2, 0,19, 0.00,60.00,Friday
11,311480774.7049669
47,143344268.99999986
71,47505068.99999999
346,95839199.99999984
993,135564839.99999989
1017,135564839.99999989
1497,405688526.26714417
1533,28597212.921243654
1557,28597212.921243654
2228,8885745.13693184
2366,3024801.430145459
4122,23502045.552975995
4134,16495100.430924602
4171,3545058.6301972984
4231,374066511.9157551
4244,55413.57708002337
4355,0.0
4480,128461.43797921337
2,2, 1, 2, 0,20, 0.00,60.00,Friday
11,365950540.0353769
47,171942668.99999974
71,47505068.99999999
346,124437599.9999998
993,164163239.99999974
1017,164163239.99999974
1497,353323743.62425878
1533,0.0
1557,0.0
2228,7364539.662708634
2366,2589752.718472697
4122,22263669.371674453
4134,16370788.798076557
4171,3545058.6301972984
4231,350733990.9057861
4244,58426.06904703817
4355,0.0
4480,157995.93194712868
2,2, 1, 2, 0,21, 0.00,60.00,Friday
11,379065224.8858106
47,180270629.9999997
71,41533829.999999988
346,138736799.9999998
993,169616699.99999974
1017,169616699.99999974
1497,346296970.4198041
1533,0.0
1557,0.0
2228,7280823.5089805689
2366,2739938.2796121367
4122,21650084.860622087
4134,16360750.220335668
4171,3545058.6301972984
4231,343557032.140192
4244,61554.470015986684
4355,0.0
4480,185432.04619229865
2,2, 1, 2, 0,22, 0.00,60.00,Friday
11,296925247.4012251
47,143777915.9999998
71,19340315.999999998
346,124437599.9999998
993,132085079.9999998
1017,132085079.9999998
1497,189647618.35758097
1533,0.0
1557,0.0
2228,4666241.379603496
2366,1745614.0415642625
4122,16343120.748707639
4134,10346942.241586464
4171,3545058.6301972984
4231,187902004.31601668
4244,20505.436315577554
4355,0.0
4480,32383.836598658716
2,2, 1, 2, 0,23, 0.00,60.00,Friday
11,204044923.34750653
47,96788438.99999984
71,5971238.999999999
346,90817199.99999984
993,90768869.99999985
1017,90768869.99999985
1497,121788281.42857592
1533,0.0
1557,0.0
2228,2539743.6349185418
2366,1606717.154623827
4122,13892000.871783762
4134,10346942.241586464
4171,3545058.630197298
4231,120181564.27395208
4244,21517.323951107875
4355,0.0
4480,34352.51685332284
2,2, 1, 2, 0,24, 0.00,60.00,Friday
11,115641930.25387123
47,52754678.99999992
71,4835078.999999999
346,47919599.99999992
993,47320469.999999929
1017,47320469.999999929
1497,124254513.48057603
1533,0.0
1557,0.0
2228,1617778.1771362057
2366,1093387.0146516807
4122,13892000.871783762
4134,10346942.241586464
4171,3545058.6301972984
4231,123161126.46592435
4244,22050.7851795788
4355,0.0
4480,34951.419771704204
2,3, 1, 3, 0, 1, 0.00,60.00,Saturday
11,57427821.495822537
47,24156278.99999996
71,4835078.999999999
346,19321199.999999968
993,18722069.99999997
1017,18722069.99999997
1497,2117823.2715927597
1533,0.0
1557,0.0
2228,2493363.584675833
2366,1507715.13060582
4122,12056108.911146746
4134,8488078.333418435
4171,3545058.630197298
4231,610108.1409869393
4244,0.0
4355,0.0
4480,0.0
2,3, 1, 3, 0, 2, 0.00,60.00,Saturday
11,57688768.10930209
47,24156278.99999996
71,4835078.999999999
346,19321199.999999968
993,18722069.99999997
1017,18722069.99999997
1497,9898340.203147553
1533,0.0
1557,0.0
2228,2470481.345617301
2366,1231579.3044464398
4122,12339937.763684836
4134,8488078.333418435
4171,3545058.6301972984
4231,8666760.898701113
4244,0.0
4355,0.0
4480,0.0
2,3, 1, 3, 0, 3, 0.00,60.00,Saturday
11,57533254.8300442
47,24156278.99999996
71,4835078.999999999
346,19321199.999999968
993,18722069.99999997
1017,18722069.99999997
1497,30752927.77796948
1533,0.0
1557,0.0
2228,1617441.0151668313
2366,1206325.0039080294
4122,13037464.81487742
4134,8488078.333418435
4171,3545058.6301972984
4231,29546602.77406145
4244,0.0
4355,0.0
4480,0.0
2,3, 1, 3, 0, 4, 0.00,60.00,Saturday
11,58027816.625766988
47,24156278.99999996
71,4835078.999999999
346,19321199.999999968
993,18722069.99999997
1017,18722069.99999997
1497,47146884.0353502
1533,0.0
1557,0.0
2228,1589600.431230707
2366,1226479.682137312
4122,13559867.194536325
4134,8488078.333418435
4171,3545058.6301972984
4231,45920404.35321289
4244,0.0
4355,0.0
4480,0.0
2,3, 1, 3, 0, 5, 0.00,60.00,Saturday
11,59311637.71625134
47,24156278.99999996
71,4835078.999999999
346,19321199.999999968
993,18722069.99999997
1017,18722069.99999997
1497,85367765.07056514
1533,0.0
1557,0.0
2228,1589481.3290228502
2366,1118003.9131840412
4122,14843807.387228538
4134,8488078.333418435
4171,3545058.6301972984
4231,84249761.15738109
4244,0.0
4355,0.0
4480,0.0
2,3, 1, 3, 0, 6, 0.00,60.00,Saturday
11,125357341.26813039
47,52754678.99999992
71,4835078.999999999
346,47919599.99999992
993,47320469.999999929
1017,47320469.999999929
1497,312053031.94667568
1533,0.0
1557,0.0
2228,794936.0446553845
2366,1095162.5516306163
4122,23521259.014451885
4134,17277553.83887902
4171,3545058.630197298
4231,310957869.3950451
4244,46334.50967953314
4355,299099.5948961598
4480,620563.1044474712
2,3, 1, 3, 0, 7, 0.00,60.00,Saturday
11,208345746.3848948
47,80361638.99999988
71,5971238.999999999
346,74390399.99999988
993,69320069.9999999
1017,69320069.9999999
1497,1425163337.4835573
1533,28597212.921243654
1557,28597212.921243654
2228,1603773.850680708
2366,1269708.9935129197
4122,54943211.54375861
4134,25617377.540474997
4171,3545058.630197298
4231,1395296415.5688005
4244,141253.9033164803
4355,0.0
4480,1975798.0871391716
2,3, 1, 3, 0, 8, 0.00,60.00,Saturday
11,199830339.14165727
47,84041502.52443746
71,9651102.524437594
346,74390399.99999988
993,73192139.99999988
1017,73192139.99999988
1497,1010729427.3449509
1533,28597212.921243654
1557,28597212.921243654
2228,4527203.544407323
2366,1997322.4626473969
4122,36620829.96742215
4134,16718404.500397789
4171,3545058.6301972984
4231,980134891.9610597
4244,114569.7436047562
4355,0.0
4480,1334093.3617856296
2,3, 1, 3, 0, 9, 0.00,60.00,Saturday
11,230835325.86219523
47,102347083.2799686
71,27956683.279968744
346,74390399.99999988
993,90883619.99999987
1017,90883619.99999987
1497,779601996.1740867
1533,285108.16507584266
1557,285108.16507584266
2228,4715146.953400608
2366,2065217.8968446078
4122,32211622.790728336
4134,16367411.014991312
4171,3545058.6301972984
4231,777251670.1121662
4244,92970.07409480386
4355,0.0
4480,584882.7640029247
2,3, 1, 3, 0,10, 0.00,60.00,Saturday
11,268355149.21823824
47,118647986.80372595
71,44257586.80372608
346,74390399.99999988
993,114116039.99999988
1017,114116039.99999988
1497,627420257.3155727
1533,285108.16507584266
1557,285108.16507584266
2228,5841467.648709117
2366,2441073.651763873
4122,29379842.017711738
4134,16422562.620902442
4171,3545058.6301972984
4231,624694075.498733
4244,74720.99921415399
4355,0.0
4480,295091.748877299
2,3, 1, 3, 0,11, 0.00,60.00,Saturday
11,268849380.80689248
47,116589354.47742993
71,63647754.47742994
346,52941599.9999999
993,115899659.99999997
1017,115899659.99999997
1497,490342264.1804569
1533,513194.69713651677
1557,513194.69713651677
2228,9275494.59873753
2366,3007129.2795317557
4122,26878470.0126644
4134,16508999.98010102
4171,3545058.630197298
4231,486821940.2037886
4244,57940.61075111189
4355,0.0
4480,148461.1073095539
2,3, 1, 3, 0,12, 0.00,60.00,Saturday
11,268229992.53216548
47,116599803.36212968
71,63658203.362129699
346,52941599.9999999
993,115899659.99999997
1017,115899659.99999997
1497,395625365.2897922
1533,11952079.865633984
1557,11952079.865633984
2228,10951174.079654282
2366,3672700.069998868
4122,24644022.56442838
4134,16714382.771005029
4171,3545058.6301972984
4231,380000585.3541593
4244,49291.455512550194
4355,0.0
4480,86041.07044057713
2,3, 1, 3, 0,13, 0.00,60.00,Saturday
11,263796406.6955001
47,113432809.21119537
71,60491209.211195398
346,52941599.9999999
993,114247259.99999997
1017,114247259.99999997
1497,317239259.17660167
1533,11952079.865633984
1557,11952079.865633984
2228,12842413.259799758
2366,3792912.9626557615
4122,23176170.24106283
4134,16789375.72660598
4171,3545058.6301972984
4231,301494266.3483119
4244,41689.38099410035
4355,0.0
4480,56064.60244810591
2,3, 1, 3, 0,14, 0.00,60.00,Saturday
11,263118646.0963543
47,113861270.1438429
71,60919670.14384292
346,52941599.9999999
993,114247259.99999997
1017,114247259.99999997
1497,264012362.3685057
1533,513194.69713651677
1557,513194.69713651677
2228,12520895.85736016
2366,3800640.800656273
4122,22406715.65348814
4134,16875916.0615181
4171,3545058.6301972984
4231,259698526.87071289
4244,37903.322654578835
4355,0.0
4480,44601.11900861031
2,3, 1, 3, 0,15, 0.00,60.00,Saturday
11,260334508.53677935
47,113962036.60620806
71,61020436.606208089
346,52941599.9999999
993,114247259.99999997
1017,114247259.99999997
1497,225525362.39348767
1533,427662.2476137639
1557,427662.2476137639
2228,10182230.055657007
2366,3116893.477827067
4122,21870127.493074377
4134,17082064.21312239
4171,3545058.6301972984
4231,221980806.66804684
4244,34296.00929359701
4355,0.0
4480,38558.37254639964
2,3, 1, 3, 0,16, 0.00,60.00,Saturday
11,260040382.5073585
47,113533249.74774634
71,60591649.747746359
346,52941599.9999999
993,114247259.99999997
1017,114247259.99999997
1497,210487135.50087089
1533,427662.2476137639
1557,427662.2476137639
2228,10041839.474008644
2366,3091346.6038301109
4122,22149144.270455555
4134,17641547.04735354
4171,3545058.6301972984
4231,206968126.64942707
4244,32827.08840232879
4355,0.0
4480,36061.92674571517
2,3, 1, 3, 0,17, 0.00,60.00,Saturday
11,264210823.90671889
47,117338283.52174723
71,64396683.52174725
346,52941599.9999999
993,114247259.99999997
1017,114247259.99999997
1497,244580893.50013284
1533,29024875.168857416
1557,29024875.168857416
2228,9906613.267860637
2366,3300427.779002173
4122,22649598.566029654
4134,17981667.049906557
4171,3545058.6301972984
4231,212255590.55227325
4244,32886.93325865037
4355,0.0
4480,36181.617822776236
2,3, 1, 3, 0,18, 0.00,60.00,Saturday
11,258070707.72756917
47,111937382.99999996
71,64017782.99999998
346,47919599.99999992
993,113145659.99999997
1017,113145659.99999997
1497,302088619.156878
1533,28597212.921243654
1557,28597212.921243654
2228,9770871.010214366
2366,2912472.1133144299
4122,23135288.755626684
4134,17283027.04931165
4171,3545058.6301972984
4231,270578934.12231996
4244,37758.02324235236
4355,0.0
4480,43746.93848584306
2,3, 1, 3, 0,19, 0.00,60.00,Saturday
11,284816520.0723728
47,128942549.99999987
71,38125349.999999988
346,90817199.99999984
993,125066699.99999988
1017,125066699.99999988
1497,289443675.80476829
1533,28597212.921243654
1557,28597212.921243654
2228,9514011.536071882
2366,2764001.6207783019
4122,21194251.934026727
4134,16360768.85818528
4171,3545058.630197298
4231,258082461.2627463
4244,42647.76684922985
4355,0.0
4480,56358.83542506012
2,3, 1, 3, 0,20, 0.00,60.00,Saturday
11,307071819.9629658
47,142745273.9999998
71,23329673.999999994
346,119415599.9999998
993,138176819.9999998
1017,138176819.9999998
1497,196938611.95442824
1533,0.0
1557,0.0
2228,7536549.702221204
2366,2525733.2629611499
4122,18537144.00898242
4134,14501886.312167634
4171,3545058.6301972984
4231,194412878.6914671
4244,33730.13007453506
4355,0.0
4480,42302.121687851904
2,3, 1, 3, 0,21, 0.00,60.00,Saturday
11,334137434.19419899
47,157044473.99999977
71,23329673.999999994
346,133714799.99999979
993,152476019.99999977
1017,152476019.99999977
1497,237278192.28948779
1533,0.0
1557,0.0
2228,5965610.820015795
2366,2344079.5703752047
4122,18541884.35019347
4134,14501886.312167634
4171,3545058.6301972984