Program Version,EnergyPlus, Version 9.0.1-bb7ca4f0da, YMD=2019.12.17 18:23
1,5,Environment Title[],Latitude[deg],Longitude[deg],Time Zone[],Elevation[m]
2,8,Day of Simulation[],Month[],Day of Month[],DST Indicator[1=yes 0=no],Hour[],StartMinute[],EndMinute[],DayType
3,5,Cumulative Day of Simulation[],Month[],Day of Month[],DST Indicator[1=yes 0=no],DayType  ! When Daily Meters Requested
4,2,Cumulative Days of Simulation[],Month[]  ! When Monthly Meters Requested
5,1,Cumulative Days of Simulation[] ! When Run Period Meters Requested
6,1,Calendar Year of Simulation[] ! When Annual Meters Requested
4244,1,Heating:Electricity [J] !Hourly
4171,1,ProcessMotors:Fans:Electricity [J] !Hourly
1017,1,Receptacle:InteriorEquipment:Electricity [J] !Hourly
11,1,Electricity:Facility [J] !Hourly
1533,1,InteriorEquipment:Gas [J] !Hourly
2366,1,WaterSystems:Gas [J] !Hourly
47,1,InteriorLights:Electricity [J] !Hourly
993,1,InteriorEquipment:Electricity [J] !Hourly
4122,1,Fans:Electricity [J] !Hourly
4480,1,Pumps:Electricity [J] !Hourly
4355,1,Cooling:Electricity [J] !Hourly
2228,1,WaterSystems:Electricity [J] !Hourly
4231,1,Heating:Gas [J] !Hourly
1497,1,Gas:Facility [J] !Hourly
71,1,ComplianceLtg:InteriorLights:Electricity [J] !Hourly
1557,1,Receptacle:InteriorEquipment:Gas [J] !Hourly
346,1,NonComplianceLtg:InteriorLights:Electricity [J] !Hourly
4134,1,General:Fans:Electricity [J] !Hourly
End of Data Dictionary
1,PALM-SPRINGS-INTL_722868_CZ2010,  33.83,-116.50,  -8.00, 137.00
2,1, 1, 1, 0, 1, 0.00,60.00,Holiday
11,55704661.95372519
47,24156278.99999996
71,4835078.999999999
346,19321199.999999968
993,18722069.99999997
1017,18722069.99999997
1497,1036677.5750542139
1533,0.0
1557,0.0
2228,793175.9901094831
2366,1036677.5750542139
4122,12033136.963615733
4134,8488078.333418435
4171,3545058.6301972984
4231,0.0
4244,0.0
4355,0.0
4480,0.0
2,1, 1, 1, 0, 2, 0.00,60.00,Holiday
11,56497749.954586159
47,24156278.99999996
71,4835078.999999999
346,19321199.999999968
993,18722069.99999997
1017,18722069.99999997
1497,1036514.6168321598
1533,0.0
1557,0.0
2228,1586263.990970457
2366,1036514.6168321598
4122,12033136.963615733
4134,8488078.333418435
4171,3545058.6301972984
4231,0.0
4244,0.0
4355,0.0
4480,0.0
2,1, 1, 1, 0, 3, 0.00,60.00,Holiday
11,55704574.1485226
47,24156278.99999996
71,4835078.999999999
346,19321199.999999968
993,18722069.99999997
1017,18722069.99999997
1497,1036729.3082513438
1533,0.0
1557,0.0
2228,793088.1849069032
2366,1036729.3082513438
4122,12033136.963615733
4134,8488078.333418435
4171,3545058.6301972984
4231,0.0
4244,0.0
4355,0.0
4480,0.0
2,1, 1, 1, 0, 4, 0.00,60.00,Holiday
11,56486473.888519499
47,24156278.99999996
71,4835078.999999999
346,19321199.999999968
993,18722069.99999997
1017,18722069.99999997
1497,1032469.6039708898
1533,0.0
1557,0.0
2228,1574987.9249037877
2366,1032469.6039708898
4122,12033136.963615733
4134,8488078.333418435
4171,3545058.6301972984
4231,0.0
4244,0.0
4355,0.0
4480,0.0
2,1, 1, 1, 0, 5, 0.00,60.00,Holiday
11,55708808.93220605
47,24156278.99999996
71,4835078.999999999
346,19321199.999999968
993,18722069.99999997
1017,18722069.99999997
1497,1254654.3935555532
1533,0.0
1557,0.0
2228,787453.8356828989
2366,1032561.5782368087
4122,12043006.096523185
4134,8488078.333418435
4171,3545058.6301972984
4231,222092.81531874455
4244,0.0
4355,0.0
4480,0.0
2,1, 1, 1, 0, 6, 0.00,60.00,Holiday
11,115701475.64046213
47,52754678.99999992
71,4835078.999999999
346,47919599.99999992
993,47320469.999999929
1017,47320469.999999929
1497,65031385.93782865
1533,0.0
1557,0.0
2228,1575091.356481908
2366,1297432.4809067946
4122,14017548.729103076
4134,10417669.202081912
4171,3545058.6301972984
4231,63733953.45692186
4244,11206.866288422432
4355,0.0
4480,22479.688588729907
2,1, 1, 1, 0, 7, 0.00,60.00,Holiday
11,173744938.57134775
47,74197425.58443065
71,4829025.584430775
346,69368399.9999999
993,68769269.9999999
1017,68769269.9999999
1497,396512796.0469004
1533,28597212.921243654
1557,28597212.921243654
2228,793255.7598732218
2366,1036677.3805279296
4122,29953424.90653318
4134,10417669.202081912
4171,3545058.6301972984
4231,366878905.74512889
4244,9081.05973444137
4355,0.0
4480,22481.26077627947
2,1, 1, 1, 0, 8, 0.00,60.00,Holiday
11,168036915.42349635
47,74026515.30637476
71,4658115.306374883
346,69368399.9999999
993,68769269.9999999
1017,68769269.9999999
1497,253480931.01896668
1533,28597212.921243654
1557,28597212.921243654
2228,2431438.5300361758
2366,1191171.7218138374
4122,22778522.24481167
4134,10417669.202081912
4171,3545058.6301972984
4231,223692546.37590919
4244,8693.79395938734
4355,0.0
4480,22475.54831433117
2,1, 1, 1, 0, 9, 0.00,60.00,Holiday
11,182988153.49938009
47,77220145.16224224
71,7851745.1622423599
346,69368399.9999999
993,72641339.99999988
1017,72641339.99999988
1497,471333166.6395019
1533,0.0
1557,0.0
2228,1645165.0098877517
2366,1182269.6694613957
4122,30436802.221258455
4134,22257215.460778759
4171,3545058.630197298
4231,470150896.97004058
4244,86107.1389011378
4355,0.0
4480,958593.9670905419
2,1, 1, 1, 0,10, 0.00,60.00,Holiday
11,175182482.03666304
47,77228480.97771563
71,7860080.977715753
346,69368399.9999999
993,72641339.99999988
1017,72641339.99999988
1497,323064110.5174116
1533,0.0
1557,0.0
2228,2504837.182588651
2366,1335984.165797573
4122,22515413.91851245
4134,16601910.313446109
4171,3545058.6301972984
4231,321728126.351614
4244,60323.903895638825
4355,0.0
4480,232086.0539506849
2,1, 1, 1, 0,11, 0.00,60.00,Holiday
11,177372949.62282095
47,75839924.60062333
71,27920324.60062337
346,47919599.99999992
993,74424959.99999996
1017,74424959.99999996
1497,197697291.3196296
1533,0.0
1557,0.0
2228,5649755.4683717819
2366,2003299.8616082208
4122,21381485.39653323
4134,16601910.313446109
4171,3545058.6301972984
4231,195693991.45802135
4244,33354.071640012786
4355,0.0
4480,43470.085652593356
2,1, 1, 1, 0,12, 0.00,60.00,Holiday
11,175672542.51373608
47,75958998.02252406
71,28039398.022524097
346,47919599.99999992
993,74424959.99999996
1017,74424959.99999996
1497,149088262.5744653
1533,11438885.168497468
1557,11438885.168497468
2228,4790073.1196269639
2366,2030737.4401116989
4122,20448990.81368825
4134,16601910.313446109
4171,3545058.6301972984
4231,135618639.96585614
4244,23826.656659323107
4355,0.0
4480,25693.901237508097
2,1, 1, 1, 0,13, 0.00,60.00,Holiday
11,202853199.8526496
47,85884078.75634398
71,37964478.75634399
346,47919599.99999992
993,89913239.99999997
1017,89913239.99999997
1497,95536428.62406793
1533,11438885.168497468
1557,11438885.168497468
2228,6795881.765772935
2366,2080449.7857399383
4122,20223153.26842799
4134,16601910.313446109
4171,3545058.6301972984
4231,82017093.66983053
4244,14373.392899286577
4355,0.0
4480,22472.66920542642
2,1, 1, 1, 0,14, 0.00,60.00,Holiday
11,202107918.39147008
47,85781092.4546581
71,37861492.454658139
346,47919599.99999992
993,89913239.99999997
1017,89913239.99999997
1497,78175256.69652364
1533,0.0
1557,0.0
2228,6222702.245160109
2366,2393484.862804365
4122,20154849.41296313
4134,16601910.313446109
4171,3545058.6301972984
4231,75781771.83371929
4244,13531.923148029658
4355,0.0
4480,22502.355540711338
2,1, 1, 1, 0,15, 0.00,60.00,Holiday
11,202229512.1888806
47,85845036.26699069
71,37925436.26699072
346,47919599.99999992
993,89913239.99999997
1017,89913239.99999997
1497,60685884.31722103
1533,0.0
1557,0.0
2228,5901655.5599589
2366,2060466.3001804436
4122,20212136.72308376
4134,16601910.313446109
4171,3545058.6301972984
4231,58625418.01704058
4244,10496.28977019172
4355,323848.82351305879
4480,23098.5255640099
2,1, 1, 1, 0,16, 0.00,60.00,Holiday
11,202930265.78134219
47,85657344.07984236
71,37737744.079842399
346,47919599.99999992
993,89913239.99999997
1017,89913239.99999997
1497,52244797.82845885
1533,0.0
1557,0.0
2228,5953515.529880932
2366,2061649.4660760919
4122,20358595.00422819
4134,16609274.721946015
4171,3545058.6301972984
4231,50183148.36238276
4244,8984.786541547313
4355,1014954.6999236937
4480,23631.68092544422
2,1, 1, 1, 0,17, 0.00,60.00,Holiday
11,205843048.9050349
47,88978047.84037556
71,41058447.84037558
346,47919599.99999992
993,89913239.99999997
1017,89913239.99999997
1497,81136777.27982462
1533,28597212.921243654
1557,28597212.921243654
2228,6433504.516116275
2366,2330462.092004182
4122,20220629.606240475
4134,16622239.769475308
4171,3545058.6301972984
4231,50209102.26657678
4244,8989.433326308987
4355,264976.22620228028
4480,23661.28277403744
2,1, 1, 1, 0,18, 0.00,60.00,Holiday
11,179350986.0398927
47,78647111.99999994
71,30727511.99999999
346,47919599.99999992
993,74424959.99999996
1017,74424959.99999996
1497,94391420.99123365
1533,28597212.921243654
1557,28597212.921243654
2228,6097568.4817210859
2366,2099895.561860581
4122,20146968.943643407
4134,16601910.313446109
4171,3545058.6301972984
4231,63694312.508129429
4244,11403.824201375344
4355,0.0
4480,22972.790326899812
2,1, 1, 1, 0,19, 0.00,60.00,Holiday
11,230878045.4349339
47,106749035.99999982
71,15931835.999999995
346,90817199.99999984
993,101834279.99999984
1017,101834279.99999984
1497,132800084.2968764
1533,28597212.921243654
1557,28597212.921243654
2228,4036109.1108999217
2366,1685247.1749893409
4122,18217378.074979929
4134,14672319.444782628
4171,3545058.6301972984
4231,102517624.2006434
4244,18378.60918103257
4355,0.0
4480,22863.639873228192
2,1, 1, 1, 0,20, 0.00,60.00,Holiday
11,259987403.61458946
47,124250678.9999998
71,4835078.999999999
346,119415599.9999998
993,118816469.99999982
1017,118816469.99999982
1497,1700857.6861304036
1533,0.0
1557,0.0
2228,4887117.650973933
2366,1700857.6861304036
4122,12033136.963615733
4134,8488078.333418435
4171,3545058.6301972984
4231,0.0
4244,0.0
4355,0.0
4480,0.0
2,1, 1, 1, 0,21, 0.00,60.00,Holiday
11,287859940.08395496
47,138549878.9999998
71,4835078.999999999
346,133714799.99999979
993,133115669.99999979
1017,133115669.99999979
1497,1654540.4331038197
1533,0.0
1557,0.0
2228,4161254.1203394776
2366,1654540.4331038197
4122,12033136.963615733
4134,8488078.333418435
4171,3545058.6301972984
4231,0.0
4244,0.0
4355,0.0
4480,0.0
2,1, 1, 1, 0,22, 0.00,60.00,Holiday
11,257643727.88313595
47,124250678.9999998
71,4835078.999999999
346,119415599.9999998
993,118816469.99999982
1017,118816469.99999982
1497,1627031.2859844005
1533,0.0
1557,0.0
2228,2543441.9195204249
2366,1627031.2859844005
4122,12033136.963615733
4134,8488078.333418435
4171,3545058.6301972984
4231,0.0
4244,0.0
4355,0.0
4480,0.0
2,1, 1, 1, 0,23, 0.00,60.00,Holiday
11,199524378.20393089
47,95652278.99999984
71,4835078.999999999
346,90817199.99999984
993,90218069.99999985
1017,90218069.99999985
1497,1050027.9838456142
1533,0.0
1557,0.0
2228,1620892.2403153624
2366,1050027.9838456142
4122,12033136.963615733
4134,8488078.333418435
4171,3545058.6301972984
4231,0.0
4244,0.0
4355,0.0
4480,0.0
2,1, 1, 1, 0,24, 0.00,60.00,Holiday
11,113683412.06487255
47,52754678.99999992
71,4835078.999999999
346,47919599.99999992
993,47320469.999999929
1017,47320469.999999929
1497,1032484.4203957764
1533,0.0
1557,0.0
2228,1575126.1012568505
2366,1032484.4203957764
4122,12033136.963615733
4134,8488078.333418435
4171,3545058.6301972984
4231,0.0
4244,0.0
4355,0.0
4480,0.0
2,2, 1, 2, 0, 1, 0.00,60.00,Friday
11,55688038.02292674
47,24156278.99999996
71,4835078.999999999
346,19321199.999999968
993,18722069.99999997
1017,18722069.99999997
1497,1025661.2005267126
1533,0.0
1557,0.0
2228,776552.0593110432
2366,1025661.2005267126
4122,12033136.963615733
4134,8488078.333418435
4171,3545058.6301972984
4231,0.0
4244,0.0
4355,0.0
4480,0.0
2,2, 1, 2, 0, 2, 0.00,60.00,Friday
11,55693444.86232792
47,24156278.99999996
71,4835078.999999999
346,19321199.999999968
993,18722069.99999997
1017,18722069.99999997
1497,1029983.5922168677
1533,0.0
1557,0.0
2228,781958.8987122149
2366,1029983.5922168677
4122,12033136.963615733
4134,8488078.333418435
4171,3545058.6301972984
4231,0.0
4244,0.0
4355,0.0
4480,0.0
2,2, 1, 2, 0, 3, 0.00,60.00,Friday
11,55693390.86412342
47,24156278.99999996
71,4835078.999999999
346,19321199.999999968
993,18722069.99999997
1017,18722069.99999997
1497,1030010.1169258047
1533,0.0
1557,0.0
2228,781904.900507715
2366,1030010.1169258047
4122,12033136.963615733
4134,8488078.333418435
4171,3545058.6301972984
4231,0.0
4244,0.0
4355,0.0
4480,0.0
2,2, 1, 2, 0, 4, 0.00,60.00,Friday
11,55688008.885645467
47,24156278.99999996
71,4835078.999999999
346,19321199.999999968
993,18722069.99999997
1017,18722069.99999997
1497,1025624.618341722
1533,0.0
1557,0.0
2228,776522.9220297638
2366,1025624.618341722
4122,12033136.963615733
4134,8488078.333418435
4171,3545058.6301972984
4231,0.0
4244,0.0
4355,0.0
4480,0.0
2,2, 1, 2, 0, 5, 0.00,60.00,Friday
11,55693108.147683348
47,24156278.99999996
71,4835078.999999999
346,19321199.999999968
993,18722069.99999997
1017,18722069.99999997
1497,1141487.9668480054
1533,0.0
1557,0.0
2228,776529.3353816953
2366,1025534.7339291191
4122,12038229.812301677
4134,8488078.333418435
4171,3545058.6301972984
4231,115953.23291888624
4244,0.0
4355,0.0
4480,0.0
2,2, 1, 2, 0, 6, 0.00,60.00,Friday
11,117393310.81472355
47,53890838.99999992
71,5971238.999999999
346,47919599.99999992
993,47871269.999999929
1017,47871269.999999929
1497,129171143.12285957
1533,0.0
1557,0.0
2228,776583.4378393377
2366,1031286.8036907087
4122,14755794.880037688
4134,11178955.594371846
4171,3545058.630197298
4231,128139856.31916885
4244,24069.35893958111
4355,0.0
4480,74754.13790697133
2,2, 1, 2, 0, 7, 0.00,60.00,Friday
11,191781443.61966378
47,80349589.75783402
71,5959189.757834133
346,74390399.99999988
993,69320069.9999999
1017,69320069.9999999
1497,766913096.7288201
1533,28597212.921243654
1557,28597212.921243654
2228,776516.9776591117
2366,1029445.0185257166
4122,39984662.18574853
4134,21437589.51951704
4171,3545058.6301972984
4231,737286438.7890506
4244,101817.9962851537
4355,0.0
4480,1248786.7021369744
2,2, 1, 2, 0, 8, 0.00,60.00,Friday
11,208585948.2806233
47,95003710.09029937
71,20613310.090299503
346,74390399.99999988
993,83139479.99999988
1017,83139479.99999988
1497,510887888.09112319
1533,28882321.086319496
1557,28882321.086319496
2228,2524478.9296908529
2366,1658349.0091176383
4122,27279596.699561057
4134,16608487.671590414
4171,3545058.6301972984
4231,480347217.99568596
4244,78287.73898940684
4355,0.0
4480,560394.8220826278
2,2, 1, 2, 0, 9, 0.00,60.00,Friday
11,264402118.4014749
47,122909368.6939622
71,48518968.69396234
346,74390399.99999988
993,112981499.99999987
1017,112981499.99999987
1497,317800131.96221187
1533,285108.16507584266
1557,285108.16507584266
2228,4482052.58338749
2366,2113529.2830303676
4122,23824899.42941154
4134,16601910.313446109
4171,3545058.6301972984
4231,315401494.5141057
4244,51768.53135456178
4355,0.0
4480,152529.1633590936
2,2, 1, 2, 0,10, 0.00,60.00,Friday
11,318260913.15184167
47,146860525.97164545
71,72470125.9716455
346,74390399.99999988
993,143958059.99999995
1017,143958059.99999995
1497,192193995.3838061
1533,285108.16507584266
1557,285108.16507584266
2228,5803479.492009433
2366,2715668.8379423648
4122,21558480.61177497
4134,16636869.296666734
4171,3545058.630197298
4231,189193218.3807879
4244,31276.806153812227
4355,0.0
4480,49090.27025801122
2,2, 1, 2, 0,11, 0.00,60.00,Friday
11,276861338.3422959
47,126280573.37380968
71,73338973.37380971
346,52941599.9999999
993,122509259.99999996
1017,122509259.99999996
1497,114542483.93011779
1533,513194.69713651677
1557,513194.69713651677
2228,7078684.690432007
2366,2779739.3658272048
4122,20951543.895642718
4134,16660920.34545522
4171,3545058.6301972984
4231,111249549.86715408
4244,17291.57828159027
4355,0.0
4480,23984.80412982616
2,2, 1, 2, 0,12, 0.00,60.00,Friday
11,278073696.8582965
47,125041061.42821753
71,72099461.42821756
346,52941599.9999999
993,122509259.99999996
1017,122509259.99999996
1497,69491629.78165467
1533,11952079.865633984
1557,11952079.865633984
2228,9965944.0082895
2366,3575810.7947669418
4122,20524697.766361134
4134,16866519.938915828
4171,3545058.6301972984
4231,53963739.12125375
4244,9224.092722114101
4355,0.0
4480,23509.562706228135
2,2, 1, 2, 0,13, 0.00,60.00,Friday
11,281386341.32327827
47,127442868.08032233
71,74501268.08032234
346,52941599.9999999
993,122509259.99999996
1017,122509259.99999996
1497,38377641.71884816
1533,11952079.865633984
1557,11952079.865633984
2228,10769197.187638142
2366,4013456.5091269027
4122,20634788.590699577
4134,17081285.111663134
4171,3545058.6301972984
4231,22412105.344087274
4244,3982.2737504017188
4355,0.0
4480,26245.19086782677
2,2, 1, 2, 0,14, 0.00,60.00,Friday
11,282136928.0473354
47,128151410.69999123
71,75209810.69999124
346,52941599.9999999
993,122509259.99999996
1017,122509259.99999996
1497,11587782.336659037
1533,513194.69713651677
1557,513194.69713651677
2228,10372755.295210062
2366,3935833.0746544839
4122,21074193.71535799
4134,17529135.085160696
4171,3545058.6301972984
4231,7138754.564868036
4244,1278.1219997331855
4355,0.0
4480,28030.214776397148
2,2, 1, 2, 0,15, 0.00,60.00,Friday
11,281314339.8333094
47,128309731.0979111
71,75368131.09791112
346,52941599.9999999
993,122509259.99999996
1017,122509259.99999996
1497,7160241.8521997849
1533,427662.2476137639
1557,427662.2476137639
2228,9082450.887316639
2366,3225487.8166250477
4122,21383750.940768299
4134,17838692.310571
4171,3545058.6301972984
4231,3507091.787960974
4244,627.9094103243447
4355,0.0
4480,28518.997903068957
2,2, 1, 2, 0,16, 0.00,60.00,Friday
11,277435169.93969979
47,125175201.33699039
71,72233601.3369904
346,52941599.9999999
993,122509259.99999996
1017,122509259.99999996
1497,7639140.202333609
1533,427662.2476137639
1557,427662.2476137639
2228,7731497.424474405
2366,2979726.39921149
4122,21990026.954213788
4134,18444968.32401649
4171,3545058.6301972984
4231,4231751.555508355
4244,757.6524324170177
4355,0.0
4480,28426.57158871809
2,2, 1, 2, 0,17, 0.00,60.00,Friday
11,282440696.610409
47,130064363.62646272
71,77122763.62646276
346,52941599.9999999
993,122509259.99999996
1017,122509259.99999996
1497,38687634.64855595
1533,29024875.168857416
1557,29024875.168857416
2228,7715906.621011261
2366,3077273.2428481907
4122,22121867.216506527
4134,18576808.586309229
4171,3545058.6301972984
4231,6585486.236850344
4244,1179.0648861471435
4355,0.0
4480,28120.08154240486
2,2, 1, 2, 0,18, 0.00,60.00,Friday
11,271804115.4388609
47,123776342.99999996
71,70834742.99999997
346,52941599.9999999
993,118102859.99999997
1017,118102859.99999997
1497,44252103.850234109
1533,29024875.168857416
1557,29024875.168857416
2228,8285052.858726766
2366,2962750.6542445325
4122,21610250.275269994
4134,18065191.64507269
4171,3545058.6301972984
4231,12264478.027132161
4244,2195.8310849998586
4355,0.0
4480,27413.473779191903
2,2, 1, 2, 0,19, 0.00,60.00,Friday
11,306400860.319198
47,143344268.99999986
71,47505068.99999999
346,95839199.99999984
993,135564839.99999989
1017,135564839.99999989
1497,78027668.36781913
1533,28597212.921243654
1557,28597212.921243654
2228,7132105.192962797
2366,2534078.523260425
4122,20327184.195431595
4134,16782125.565234297
4171,3545058.6301972984
4231,46896376.92331504
4244,8396.323267429301
4355,0.0
4480,24065.607536356652
2,2, 1, 2, 0,20, 0.00,60.00,Friday
11,362449945.65641286
47,171942668.99999974
71,47505068.99999999
346,124437599.9999998
993,164163239.99999974
1017,164163239.99999974
1497,69034475.44302966
1533,0.0
1557,0.0
2228,6114459.558433801
2366,2400625.0598002795
4122,20194752.80500265
4134,16649694.17480535
4171,3545058.6301972984
4231,66633850.383229378
4244,11930.118808239116
4355,0.0
4480,22894.174168433296
2,2, 1, 2, 0,21, 0.00,60.00,Friday
11,375617885.03144636
47,180270629.9999997
71,41533829.999999988
346,138736799.9999998
993,169616699.99999974
1017,169616699.99999974
1497,77889432.65630847
1533,0.0
1557,0.0
2228,5547495.3228001859
2366,2099131.080741035
4122,20146968.943643407
4134,16601910.313446109
4171,3545058.6301972984
4231,75790301.57556743
4244,13569.489037607236
4355,0.0
4480,22521.27596543442
2,2, 1, 2, 0,22, 0.00,60.00,Friday
11,294260433.2029482
47,143777915.9999998
71,19340315.999999998
346,124437599.9999998
993,132085079.9999998
1017,132085079.9999998
1497,24588921.487098285
1533,0.0
1557,0.0
2228,4404727.566251778
2366,1810401.2225496248
4122,13962727.832279209
4134,10417669.202081912
4171,3545058.630197298
4231,22778520.264548657
4244,4078.2642976360677
4355,0.0
4480,25903.540119841608
2,2, 1, 2, 0,23, 0.00,60.00,Friday
11,204036394.14032043
47,96788438.99999984
71,5971238.999999999
346,90817199.99999984
993,90768869.99999985
1017,90768869.99999985
1497,28386926.75685799
1533,0.0
1557,0.0
2228,2486170.0675889386
2366,1321236.796841214
4122,13962727.832279209
4134,10417669.202081912
4171,3545058.6301972984
4231,27065689.960016777
4244,4845.83878903736
4355,0.0
4480,25341.401663405602
2,2, 1, 2, 0,24, 0.00,60.00,Friday
11,115665881.28492756
47,52754678.99999992
71,4835078.999999999
346,47919599.99999992
993,47320469.999999929
1017,47320469.999999929
1497,30407354.58820217
1533,0.0
1557,0.0
2228,1597790.0949123917
2366,1196895.3088225444
4122,13962727.832279209
4134,10417669.202081912
4171,3545058.6301972984
4231,29210459.279379626
4244,5229.838102435956
4355,0.0
4480,24984.519633538664
2,3, 1, 3, 0, 1, 0.00,60.00,Saturday
11,56544685.8048716
47,24156278.99999996
71,4835078.999999999
346,19321199.999999968
993,18722069.99999997
1017,18722069.99999997
1497,1321142.5278266418
1533,0.0
1557,0.0
2228,1633199.8412558982
2366,1321142.5278266418
4122,12033136.963615733
4134,8488078.333418435
4171,3545058.6301972984
4231,0.0
4244,0.0
4355,0.0
4480,0.0
2,3, 1, 3, 0, 2, 0.00,60.00,Saturday
11,56532448.878128368
47,24156278.99999996
71,4835078.999999999
346,19321199.999999968
993,18722069.99999997
1017,18722069.99999997
1497,1052037.871014703
1533,0.0
1557,0.0
2228,1620962.9145126695
2366,1052037.871014703
4122,12033136.963615733
4134,8488078.333418435
4171,3545058.6301972984
4231,0.0
4244,0.0
4355,0.0
4480,0.0
2,3, 1, 3, 0, 3, 0.00,60.00,Saturday
11,56509220.98666999
47,24156278.99999996
71,4835078.999999999
346,19321199.999999968
993,18722069.99999997
1017,18722069.99999997
1497,1303954.2312171597
1533,0.0
1557,0.0
2228,1597735.0230542785
2366,1303954.2312171597
4122,12033136.963615733
4134,8488078.333418435
4171,3545058.6301972984
4231,0.0
4244,0.0
4355,0.0
4480,0.0
2,3, 1, 3, 0, 4, 0.00,60.00,Saturday
11,56486289.23799222
47,24156278.99999996
71,4835078.999999999
346,19321199.999999968
993,18722069.99999997
1017,18722069.99999997
1497,1033904.4720038237
1533,0.0
1557,0.0
2228,1574803.2743765233
2366,1033904.4720038237
4122,12033136.963615733
4134,8488078.333418435
4171,3545058.6301972984
4231,0.0
4244,0.0
4355,0.0
4480,0.0
2,3, 1, 3, 0, 5, 0.00,60.00,Saturday
11,55698993.717471439
47,24156278.99999996
71,4835078.999999999
346,19321199.999999968
993,18722069.99999997
1017,18722069.99999997
1497,1034053.6654768973
1533,0.0
1557,0.0
2228,787507.7538557267
2366,1034053.6654768973
4122,12033136.963615733
4134,8488078.333418435
4171,3545058.6301972984
4231,0.0
4244,0.0
4355,0.0
4480,0.0
2,3, 1, 3, 0, 6, 0.00,60.00,Saturday
11,115029890.84180571
47,52754678.99999992
71,4835078.999999999
346,47919599.99999992
993,47320469.999999929
1017,47320469.999999929
1497,63425102.0429066
1533,0.0
1557,0.0
2228,787606.1872389567
2366,1040125.4475052676
4122,14126376.27021037
4134,10581317.640013073
4171,3545058.6301972984
4231,62384976.59540133
4244,11614.613228104532
4355,0.0
4480,29144.771128299973
2,3, 1, 3, 0, 7, 0.00,60.00,Saturday
11,173675681.33952353
47,80353887.60673084
71,5963487.6067309579
346,74390399.99999988
993,69320069.9999999
1017,69320069.9999999
1497,289010679.42081299
1533,28597212.921243654
1557,28597212.921243654
2228,1586309.8275377257
2366,1303201.8917251006
4122,22243123.55063787
4134,16887556.726699659
4171,3545058.6301972984
4231,259110264.6078443
4244,46302.85815202593
4355,0.0
4480,125987.49646510999
2,3, 1, 3, 0, 8, 0.00,60.00,Saturday
11,181239499.02737583
47,83575095.01602593
71,9184695.016026047
346,74390399.99999988
993,73192139.99999988
1017,73192139.99999988
1497,256109997.464274
1533,28597212.921243654
1557,28597212.921243654
2228,3498879.7599638116
2366,1669937.554150755
4122,20863353.079885916
4134,16601910.313446109
4171,3545058.6301972984
4231,225842846.9888796
4244,43709.20378959646
4355,0.0
4480,66321.96771057524
2,3, 1, 3, 0, 9, 0.00,60.00,Saturday
11,217274171.1794464
47,101408358.07689302
71,27017958.07689316
346,74390399.99999988
993,90883619.99999987
1017,90883619.99999987
1497,161731188.0718355
1533,285108.16507584266
1557,285108.16507584266
2228,4517427.944602496
2366,1726200.4900878173
4122,20402667.366302886
4134,16601910.313446109
4171,3545058.630197298
4231,159719879.4166718
4244,29607.116373030665
4355,0.0
4480,32490.675274980113
2,3, 1, 3, 0,10, 0.00,60.00,Saturday
11,257022381.0407101
47,118021940.1176323
71,43631540.117632437
346,74390399.99999988
993,114116039.99999988
1017,114116039.99999988
1497,91965974.79736614
1533,285108.16507584266
1557,285108.16507584266
2228,4631835.497096087
2366,2266200.5094985777
4122,20214019.029600268
4134,16623434.345953286
4171,3545058.630197298
4231,89414666.12279172
4244,15847.621619706573
4355,0.0
4480,22698.774761727727
2,3, 1, 3, 0,11, 0.00,60.00,Saturday
11,260807292.71193598
47,116523935.99531035
71,63582335.99531037
346,52941599.9999999
993,115899659.99999997
1017,115899659.99999997
1497,35036966.92629177
1533,513194.69713651677
1557,513194.69713651677
2228,7415829.582960157
2366,2600350.9630087066
4122,20435715.755998784
4134,16777364.831586925
4171,3545058.630197298
4231,31923421.266146549
4244,5674.719582491646
4355,501126.9689431963
4480,25349.68914100149
2,3, 1, 3, 0,12, 0.00,60.00,Saturday
11,267323011.02345998
47,116581494.70240635
71,63639894.70240636
346,52941599.9999999
993,115899659.99999997
1017,115899659.99999997
1497,17877663.36075003
1533,11952079.865633984
1557,11952079.865633984
2228,9574903.59183192
2366,3057267.952066201
4122,21340095.57989974
4134,17500334.01144007
4171,3545058.6301972984
4231,2868315.5430498479
4244,513.5429666948379
4355,3897746.3159263
4480,28597.290429057488
2,3, 1, 3, 0,13, 0.00,60.00,Saturday
11,270666621.3790228
47,113147241.18540915
71,60205641.18540916
346,52941599.9999999
993,114247259.99999997
1017,114247259.99999997
1497,17587558.129442559
1533,11952079.865633984
1557,11952079.865633984
2228,10121878.169405684
2366,3278999.245760341
4122,22389685.162019679
4134,18296938.502753855
4171,3545058.6301972984
4231,2356479.0180482345
4244,421.9037995366042
4355,10731462.07474523
4480,28672.88364355107
2,3, 1, 3, 0,14, 0.00,60.00,Saturday
11,276305312.67924609
47,113368942.51061702
71,60427342.51061703
346,52941599.9999999
993,114247259.99999997
1017,114247259.99999997
1497,4369133.189601846
1533,513194.69713651677
1557,513194.69713651677
2228,10240358.472736344
2366,3322971.7591196706
4122,23625548.837538978
4134,19149616.256953885
4171,3545058.6301972984
4231,532966.7333456596
4244,95.42231783221561
4355,14794181.686597275
4480,28925.749438649156
2,3, 1, 3, 0,15, 0.00,60.00,Saturday
11,280293151.7093687
47,113930220.74333327
71,60988620.74333328
346,52941599.9999999
993,114247259.99999997
1017,114247259.99999997
1497,3529192.5070718836
1533,427662.2476137639
1557,427662.2476137639
2228,8619560.784176853
2366,2846138.308206756
4122,25202221.10499529
4134,20187781.07768355
4171,3545058.6301972984
4231,255391.95125136304
4244,45.72535285854675
4355,18264878.99106417
4480,28964.360446262726
2,3, 1, 3, 0,16, 0.00,60.00,Saturday
11,283578072.99886217
47,112854192.93714825
71,59912592.93714826
346,52941599.9999999
993,114247259.99999997
1017,114247259.99999997
1497,3158368.3511789327
1533,427662.2476137639
1557,427662.2476137639
2228,8323881.002984063
2366,2632924.3121809337
4122,26422848.461182607
4134,20809910.550454659
4171,3545058.6301972984
4231,97781.79138423497
4244,17.506843470506938
4355,21700886.819841688
4480,28986.270862070778
2,3, 1, 3, 0,17, 0.00,60.00,Saturday
11,279898239.30063667
47,117701725.79670084
71,64760125.79670086
346,52941599.9999999
993,114247259.99999997
1017,114247259.99999997
1497,31937693.3308764
1533,29024875.168857416
1557,29024875.168857416
2228,7785918.497252919
2366,2843457.4948161717
4122,25473569.334142828
4134,20856617.042368369
4171,3545058.6301972984
4231,69360.66720281504
4244,12.418327855725729
4355,14660763.0362356
4480,28990.217976681182
2,3, 1, 3, 0,18, 0.00,60.00,Saturday
11,261477820.49623413
47,111937382.99999996
71,64017782.99999998
346,47919599.99999992
993,113145659.99999997
1017,113145659.99999997
1497,31796169.078271834
1533,28597212.921243654
1557,28597212.921243654
2228,8657538.725798153
2366,2542444.55555486
4122,23337338.54418636
4134,19685787.260689405
4171,3545058.6301972984
4231,656511.6014733242
4244,117.54178033414888
4355,4370873.824328176
4480,28908.860141165485
2,3, 1, 3, 0,19, 0.00,60.00,Saturday
11,282569217.4817218
47,128942549.99999987
71,38125349.999999988
346,90817199.99999984
993,125066699.99999988
1017,125066699.99999988
1497,41809977.3265266
1533,28597212.921243654
1557,28597212.921243654
2228,7706663.163636681
2366,2480421.5768247938
4122,20289460.39817159
4134,16637089.915471357
4171,3545058.6301972984
4231,10732342.828458155
4244,1921.517731571518
4355,534292.8642749982
4480,27629.537907128237
2,3, 1, 3, 0,20, 0.00,60.00,Saturday
11,307728397.87787356
47,142745273.9999998
71,23329673.999999994
346,119415599.9999998
993,138176819.9999998
1017,138176819.9999998
1497,31096042.1900921
1533,0.0
1557,0.0
2228,6008612.558634993
2366,2084873.6130769333
4122,18643796.74904837
4134,14672319.444782628
4171,3545058.6301972984
4231,29011168.57701517
4244,5194.157112324903
4355,2123086.25066633
4480,25614.16241180757
2,3, 1, 3, 0,21, 0.00,60.00,Saturday
11,337778387.10282197
47,157044473.99999977
71,23329673.999999994
346,133714799.99999979
993,152476019.99999977
1017,152476019.99999977
1497,40954492.06102276
1533,0.0
1557,0.0
2228,4708411.444669254
2366,2015885.415499669
4122,19103917.25386046
4134,14672319.444782628
4171,3545058.6301972984
4231,38938606.6455231
4244,6971.564765305792
4355,4413968.79911446
4480,24624.040412765575
2,3, 1, 3, 0,22, 0.00,60.00,Saturday
11,275724127.1842037
47,127949597.9999998
71,8533997.999999999
346,119415599.9999998