Program Version,EnergyPlus, Version 9.0.1-bb7ca4f0da, YMD=2019.12.18 15:58
1,5,Environment Title[],Latitude[deg],Longitude[deg],Time Zone[],Elevation[m]
2,8,Day of Simulation[],Month[],Day of Month[],DST Indicator[1=yes 0=no],Hour[],StartMinute[],EndMinute[],DayType
3,5,Cumulative Day of Simulation[],Month[],Day of Month[],DST Indicator[1=yes 0=no],DayType  ! When Daily Meters Requested
4,2,Cumulative Days of Simulation[],Month[]  ! When Monthly Meters Requested
5,1,Cumulative Days of Simulation[] ! When Run Period Meters Requested
6,1,Calendar Year of Simulation[] ! When Annual Meters Requested
1533,1,InteriorEquipment:Gas [J] !Hourly
4114,1,Fans:Electricity [J] !Hourly
4126,1,General:Fans:Electricity [J] !Hourly
4222,1,Heating:Gas [J] !Hourly
2366,1,WaterSystems:Gas [J] !Hourly
1017,1,Receptacle:InteriorEquipment:Electricity [J] !Hourly
11,1,Electricity:Facility [J] !Hourly
47,1,InteriorLights:Electricity [J] !Hourly
993,1,InteriorEquipment:Electricity [J] !Hourly
2228,1,WaterSystems:Electricity [J] !Hourly
1557,1,Receptacle:InteriorEquipment:Gas [J] !Hourly
4471,1,Pumps:Electricity [J] !Hourly
4235,1,Heating:Electricity [J] !Hourly
4350,1,Cooling:Electricity [J] !Hourly
1497,1,Gas:Facility [J] !Hourly
71,1,ComplianceLtg:InteriorLights:Electricity [J] !Hourly
346,1,NonComplianceLtg:InteriorLights:Electricity [J] !Hourly
4162,1,ProcessMotors:Fans:Electricity [J] !Hourly
End of Data Dictionary
1,TORRANCE_722955_CZ2010,  33.80,-118.33,  -8.00,  27.00
2,1, 1, 1, 0, 1, 0.00,60.00,Holiday
11,66339148.91999798
47,24156278.99999996
71,4835078.999999999
346,19321199.999999968
993,18722069.99999997
1017,18722069.99999997
1497,1040418.5567212388
1533,0.0
1557,0.0
2228,803093.4745876474
2366,1040418.5567212388
4114,22657706.44541039
4126,8458341.339612136
4162,14199365.105798254
4222,0.0
4235,0.0
4350,0.0
4471,0.0
2,1, 1, 1, 0, 2, 0.00,60.00,Holiday
11,67142137.5558287
47,24156278.99999996
71,4835078.999999999
346,19321199.999999968
993,18722069.99999997
1017,18722069.99999997
1497,1040341.1893008226
1533,0.0
1557,0.0
2228,1606082.1104183698
2366,1040341.1893008226
4114,22657706.44541039
4126,8458341.339612136
4162,14199365.105798254
4222,0.0
4235,0.0
4350,0.0
4471,0.0
2,1, 1, 1, 0, 3, 0.00,60.00,Holiday
11,67142123.61280781
47,24156278.99999996
71,4835078.999999999
346,19321199.999999968
993,18722069.99999997
1017,18722069.99999997
1497,1227422.9674882754
1533,0.0
1557,0.0
2228,1606068.1673974628
2366,1227422.9674882754
4114,22657706.44541039
4126,8458341.339612136
4162,14199365.105798254
4222,0.0
4235,0.0
4350,0.0
4471,0.0
2,1, 1, 1, 0, 4, 0.00,60.00,Holiday
11,66332896.03581127
47,24156278.99999996
71,4835078.999999999
346,19321199.999999968
993,18722069.99999997
1017,18722069.99999997
1497,1107871.9671500289
1533,0.0
1557,0.0
2228,796840.5904009363
2366,1107871.9671500289
4114,22657706.44541039
4126,8458341.339612136
4162,14199365.105798254
4222,0.0
4235,0.0
4350,0.0
4471,0.0
2,1, 1, 1, 0, 5, 0.00,60.00,Holiday
11,67142424.80190222
47,24156278.99999996
71,4835078.999999999
346,19321199.999999968
993,18722069.99999997
1017,18722069.99999997
1497,1307182.9998950093
1533,0.0
1557,0.0
2228,1593398.550072062
2366,1035140.8327456334
4114,22670677.251830207
4126,8458341.339612136
4162,14199365.105798254
4222,272042.1671493758
4235,0.0
4350,0.0
4471,0.0
2,1, 1, 1, 0, 6, 0.00,60.00,Holiday
11,125666793.83481121
47,52754678.99999992
71,4835078.999999999
346,47919599.99999992
993,47320469.999999929
1017,47320469.999999929
1497,64658295.29952396
1533,0.0
1557,0.0
2228,796870.4476119159
2366,1041757.4216660804
4114,24794774.38719934
4126,10490501.918585619
4162,14199365.105798254
4222,63616537.87785788
4235,0.0
4350,0.0
4471,0.0
2,1, 1, 1, 0, 7, 0.00,60.00,Holiday
11,180621542.42978359
47,74203478.99999988
71,4835078.999999999
346,69368399.9999999
993,68769269.9999999
1017,68769269.9999999
1497,376713454.1601543
1533,28597212.921243654
1557,28597212.921243654
2228,1606076.6052548134
2366,1300542.1664930126
4114,36042716.82452896
4126,10490501.918585619
4162,14199365.105798254
4222,346815699.0724177
4235,0.0
4350,0.0
4471,0.0
2,1, 1, 1, 0, 8, 0.00,60.00,Holiday
11,176661156.45678623
47,74179441.45002774
71,4811041.450027847
346,69368399.9999999
993,68769269.9999999
1017,68769269.9999999
1497,275724267.5513119
1533,28597212.921243654
1557,28597212.921243654
2228,1644646.688803282
2366,1054939.2622272198
4114,32067798.31795532
4126,10490501.918585619
4162,14199365.105798254
4222,246072115.367841
4235,0.0
4350,0.0
4471,0.0
2,1, 1, 1, 0, 9, 0.00,60.00,Holiday
11,193726908.06288023
47,77621585.82705572
71,8253185.827055847
346,69368399.9999999
993,72641339.99999988
1017,72641339.99999988
1497,550158438.4764403
1533,0.0
1557,0.0
2228,2507421.5212924529
2366,1331754.8237078873
4114,40230861.05413794
4126,20935932.012017784
4162,14199365.105798254
4222,548826683.6527324
4235,74210.5466686363
4350,0.0
4471,651489.1137255417
2,1, 1, 1, 0,10, 0.00,60.00,Holiday
11,185268094.05896903
47,77299955.7273951
71,7931555.727395236
346,69368399.9999999
993,72641339.99999988
1017,72641339.99999988
1497,368883543.3348467
1533,0.0
1557,0.0
2228,2548512.280426969
2366,1492304.4817802567
4114,32473835.81470824
4126,16519577.605455207
4162,14199365.105798254
4222,367391238.85306647
4235,49338.57982345081
4350,0.0
4471,255111.65661535937
2,1, 1, 1, 0,11, 0.00,60.00,Holiday
11,187323603.97792838
47,75774189.89623179
71,27854589.89623183
346,47919599.99999992
993,74424959.99999996
1017,74424959.99999996
1497,207774248.01440446
1533,0.0
1557,0.0
2228,5823164.913738857
2366,1913112.3698447829
4114,31072626.51877804
4126,16519577.605455207
4162,14199365.105798254
4222,205861135.64455969
4235,24561.456477453023
4350,0.0
4471,204101.1927023321
2,1, 1, 1, 0,12, 0.00,60.00,Holiday
11,187085240.1667748
47,75790591.66574966
71,27870991.665749704
346,47919599.99999992
993,74424959.99999996
1017,74424959.99999996
1497,150650884.5902527
1533,11438885.168497468
1557,11438885.168497468
2228,5937095.0691724349
2366,2313116.7190631206
4114,30718942.711253466
4126,16519577.605455209
4162,14199365.105798256
4222,136898882.7026921
4235,14747.874368998597
4350,0.0
4471,198902.84623035379
2,1, 1, 1, 0,13, 0.00,60.00,Holiday
11,216043845.10518299
47,85719933.29444415
71,37800333.29444418
346,47919599.99999992
993,89913239.99999997
1017,89913239.99999997
1497,70694370.91599579
1533,11438885.168497468
1557,11438885.168497468
2228,6464544.543354363
2366,2117758.309612336
4114,30900102.965348949
4126,16519577.605455209
4162,14199365.105798254
4222,57137727.437885988
4235,2377.1658390923946
4350,2844981.985241851
4471,198665.1509546516
2,1, 1, 1, 0,14, 0.00,60.00,Holiday
11,224589435.99279926
47,85726506.4122977
71,37806906.412297729
346,47919599.99999992
993,89913239.99999997
1017,89913239.99999997
1497,49812251.383485618
1533,0.0
1557,0.0
2228,7050450.082268955
2366,2437861.066428786
4114,31564491.17438391
4126,16519577.605455207
4162,14199365.105798254
4222,47374390.31705683
4235,1717.5711003016755
4350,10134257.510013054
4471,198773.2427354405
2,1, 1, 1, 0,15, 0.00,60.00,Holiday
11,224193690.23393817
47,86212327.17447907
71,38292727.1744791
346,47919599.99999992
993,89913239.99999997
1017,89913239.99999997
1497,50243406.641758728
1533,0.0
1557,0.0
2228,6277455.39801768
2366,2357997.8041786465
4114,31577147.52002164
4126,16519577.605455207
4162,14199365.105798254
4222,47885408.837580088
4235,1645.444437461906
4350,10013092.75122928
4471,198781.94575310788
2,1, 1, 1, 0,16, 0.00,60.00,Holiday
11,224153321.222478
47,86220802.30983857
71,38301202.30983859
346,47919599.99999992
993,89913239.99999997
1017,89913239.99999997
1497,49228610.19040395
1533,0.0
1557,0.0
2228,7036850.057804578
2366,2131765.51125361
4114,31401424.269586356
4126,16539802.19984712
4162,14199365.105798254
4222,47096844.67915035
4235,1593.2268764173178
4350,9380622.297945556
4471,198789.0604266402
2,1, 1, 1, 0,17, 0.00,60.00,Holiday
11,222103627.448392
47,89241839.72887975
71,41322239.72887976
346,47919599.99999992
993,89913239.99999997
1017,89913239.99999997
1497,81797349.36319816
1533,28597212.921243654
1557,28597212.921243654
2228,7335322.575821754
2366,2421514.1141173879
4114,30974516.616675795
4126,16553436.68523562
4162,14199365.105798254
4222,50778622.327837128
4235,1554.342334819214
4350,4438359.370365022
4471,198794.81431495909
2,1, 1, 1, 0,18, 0.00,60.00,Holiday
11,190132002.42681147
47,78647111.99999994
71,30727511.99999999
346,47919599.99999992
993,74424959.99999996
1017,74424959.99999996
1497,116007886.05003955
1533,28597212.921243654
1557,28597212.921243654
2228,6127792.424830923
2366,2084722.5419516089
4114,30720399.390540285
4126,16519577.605455207
4162,14199365.105798254
4222,85325950.5868443
4235,6246.722595170428
4350,7208.933933857187
4471,198282.95491139199
2,1, 1, 1, 0,19, 0.00,60.00,Holiday
11,242163377.60265024
47,106749035.99999982
71,15931835.999999995
346,90817199.99999984
993,101834279.99999984
1017,101834279.99999984
1497,136684885.30676309
1533,28597212.921243654
1557,28597212.921243654
2228,4674332.769552622
2366,1988600.7390467043
4114,28686782.132279979
4126,14487417.026481722
4162,14199365.105798254
4222,106099071.64647274
4235,18996.023261429153
4350,0.0
4471,199950.67755642168
2,1, 1, 1, 0,20, 0.00,60.00,Holiday
11,271326582.04317668
47,124250678.9999998
71,4835078.999999999
346,119415599.9999998
993,118816469.99999982
1017,118816469.99999982
1497,1722068.0006601853
1533,0.0
1557,0.0
2228,5415419.838855759
2366,1722068.0006601853
4114,22689060.36151745
4126,8458341.339612136
4162,14199365.105798254
4222,0.0
4235,0.0
4350,154952.84280366684
4471,0.0
2,1, 1, 1, 0,21, 0.00,60.00,Holiday
11,299525905.8057902
47,138549878.9999998
71,4835078.999999999
346,133714799.99999979
993,133115669.99999979
1017,133115669.99999979
1497,1750372.6398510044
1533,0.0
1557,0.0
2228,3889822.4774587338
2366,1750372.6398510044
4114,22878654.129427457
4126,8458341.339612136
4162,14199365.105798254
4222,0.0
4235,0.0
4350,1091880.19890431
4471,0.0
2,1, 1, 1, 0,22, 0.00,60.00,Holiday
11,270172922.2509819
47,124250678.9999998
71,4835078.999999999
346,119415599.9999998
993,118816469.99999982
1017,118816469.99999982
1497,1561293.3664758509
1533,0.0
1557,0.0
2228,3449592.708212325
2366,1561293.3664758509
4114,22825772.626815119
4126,8458341.339612136
4162,14199365.105798254
4222,0.0
4235,0.0
4350,830407.9159547419
4471,0.0
2,1, 1, 1, 0,23, 0.00,60.00,Holiday
11,210334430.24795289
47,95652278.99999984
71,4835078.999999999
346,90817199.99999984
993,90218069.99999985
1017,90218069.99999985
1497,1318991.954556116
1533,0.0
1557,0.0
2228,1649959.4633562256
2366,1318991.954556116
4114,22684044.040111536
4126,8458341.339612136
4162,14199365.105798254
4222,0.0
4235,0.0
4350,130077.74448538256
4471,0.0
2,1, 1, 1, 0,24, 0.00,60.00,Holiday
11,123529739.04195038
47,52754678.99999992
71,4835078.999999999
346,47919599.99999992
993,47320469.999999929
1017,47320469.999999929
1497,1035602.3076066253
1533,0.0
1557,0.0
2228,796883.596540021
2366,1035602.3076066253
4114,22657706.44541039
4126,8458341.339612136
4162,14199365.105798254
4222,0.0
4235,0.0
4350,0.0
4471,0.0
2,2, 1, 2, 0, 1, 0.00,60.00,Friday
11,66320583.38218672
47,24156278.99999996
71,4835078.999999999
346,19321199.999999968
993,18722069.99999997
1017,18722069.99999997
1497,1027874.4351186528
1533,0.0
1557,0.0
2228,784527.9367763763
2366,1027874.4351186528
4114,22657706.44541039
4126,8458341.339612136
4162,14199365.105798254
4222,0.0
4235,0.0
4350,0.0
4471,0.0
2,2, 1, 2, 0, 2, 0.00,60.00,Friday
11,67117434.54025072
47,24156278.99999996
71,4835078.999999999
346,19321199.999999968
993,18722069.99999997
1017,18722069.99999997
1497,1032638.1352516315
1533,0.0
1557,0.0
2228,1581379.0948403823
2366,1032638.1352516315
4114,22657706.44541039
4126,8458341.339612136
4162,14199365.105798254
4222,0.0
4235,0.0
4350,0.0
4471,0.0
2,2, 1, 2, 0, 3, 0.00,60.00,Friday
11,66326685.75515153
47,24156278.99999996
71,4835078.999999999
346,19321199.999999968
993,18722069.99999997
1017,18722069.99999997
1497,1032743.5022153892
1533,0.0
1557,0.0
2228,790630.3097411994
2366,1032743.5022153892
4114,22657706.44541039
4126,8458341.339612136
4162,14199365.105798254
4222,0.0
4235,0.0
4350,0.0
4471,0.0
2,2, 1, 2, 0, 4, 0.00,60.00,Friday
11,66320711.2824311
47,24156278.99999996
71,4835078.999999999
346,19321199.999999968
993,18722069.99999997
1017,18722069.99999997
1497,1028007.6639547155
1533,0.0
1557,0.0
2228,784655.8370207709
2366,1028007.6639547155
4114,22657706.44541039
4126,8458341.339612136
4162,14199365.105798254
4222,0.0
4235,0.0
4350,0.0
4471,0.0
2,2, 1, 2, 0, 5, 0.00,60.00,Friday
11,66320725.12103621
47,24156278.99999996
71,4835078.999999999
346,19321199.999999968
993,18722069.99999997
1017,18722069.99999997
1497,1027983.7755943586
1533,0.0
1557,0.0
2228,784669.6756258779
2366,1027983.7755943586
4114,22657706.44541039
4126,8458341.339612136
4162,14199365.105798254
4222,0.0
4235,0.0
4350,0.0
4471,0.0
2,2, 1, 2, 0, 6, 0.00,60.00,Friday
11,127236712.49593048
47,53890838.99999992
71,5971238.999999999
346,47919599.99999992
993,47871269.999999929
1017,47871269.999999929
1497,60928849.23839948
1533,0.0
1557,0.0
2228,784736.4715466373
2366,1034302.871493082
4114,24689867.024383874
4126,10490501.918585619
4162,14199365.105798254
4222,59894546.366906408
4235,0.0
4350,0.0
4471,0.0
2,2, 1, 2, 0, 7, 0.00,60.00,Friday
11,186821391.01882348
47,80361638.99999988
71,5971238.999999999
346,74390399.99999988
993,69320069.9999999
1017,69320069.9999999
1497,419915229.6697645
1533,28597212.921243654
1557,28597212.921243654
2228,784733.8741774241
2366,1032299.293920568
4114,35695337.955069247
4126,19457217.074142144
4162,14199365.105798252
4222,390285717.45460036
4235,56068.48639476281
4350,0.0
4471,603541.7031822507
2,2, 1, 2, 0, 8, 0.00,60.00,Friday
11,213943884.64155967
47,95965536.25097385
71,21575136.250973979
346,74390399.99999988
993,83139479.99999988
1017,83139479.99999988
1497,331990179.327832
1533,28882321.086319496
1557,28882321.086319496
2228,2570431.4858003307
2366,1775666.079577628
4114,32007051.28547339
4126,16519577.605455207
4162,14199365.105798254
4222,301332192.16193488
4235,37745.55150591796
4350,0.0
4471,223640.06780628008
2,2, 1, 2, 0, 9, 0.00,60.00,Friday
11,275380490.1554275
47,125802875.02318743
71,51412475.02318755
346,74390399.99999988
993,112981499.99999987
1017,112981499.99999987
1497,218638012.98990626
1533,285108.16507584266
1557,285108.16507584266
2228,4594103.214333233
2366,2307213.0811724455
4114,31775271.287783736
4126,16519577.605455207
4162,14199365.105798254
4222,216045691.74365796
4235,23764.316121230084
4350,0.0
4471,202976.3140019269
2,2, 1, 2, 0,10, 0.00,60.00,Friday
11,332779721.8982213
47,151118158.90467198
71,76727758.90467201
346,74390399.99999988
993,143958059.99999995
1017,143958059.99999995
1497,122859203.52699566
1533,285108.16507584266
1557,285108.16507584266
2228,5999270.72373191
2366,2838256.014071647
4114,31494771.369395839
4126,16571096.561094769
4162,14199365.105798254
4222,119735839.34784815
4235,11058.38299171498
4350,0.0
4471,198402.51742998948
2,2, 1, 2, 0,11, 0.00,60.00,Friday
11,291374828.9375557
47,129391052.6349885
71,76449452.63498852
346,52941599.9999999
993,122509259.99999996
1017,122509259.99999996
1497,57218655.49325923
1533,513194.69713651677
1557,513194.69713651677
2228,7908414.638955036
2366,3088509.9753660184
4114,31364174.249117927
4126,16652996.880143162
4162,14199365.105798254
4222,53616950.820756699
4235,3377.196882094747
4350,0.0
4471,198550.217612249
2,2, 1, 2, 0,12, 0.00,60.00,Friday
11,298279573.61125949
47,129214478.45419963
71,76272878.45419964
346,52941599.9999999
993,122509259.99999996
1017,122509259.99999996
1497,32446973.04598988
1533,11952079.865633984
1557,11952079.865633984
2228,11276817.14912176
2366,3841166.5902870825
4114,31171409.52386068
4126,16898675.6323615
4162,14199365.105798254
4222,16653726.590068818
4235,1000.0831952009911
4350,3907681.8292441398
4471,198926.5716381486
2,2, 1, 2, 0,13, 0.00,60.00,Friday
11,304127237.28316089
47,128907681.66862466
71,75966081.66862467
346,52941599.9999999
993,122509259.99999996
1017,122509259.99999996
1497,28556838.05219066
1533,11952079.865633984
1557,11952079.865633984
2228,11703164.198077342
2366,4107382.6921037987
4114,31252849.913387464
4126,17051331.15443399
4162,14199365.105798254
4222,12497375.494452883
4235,787.6502953756616
4350,9554522.724463556
4471,198971.12831260335
2,2, 1, 2, 0,14, 0.00,60.00,Friday
11,306834913.38229516
47,128028893.98722202
71,75087293.98722203
346,52941599.9999999
993,122509259.99999996
1017,122509259.99999996
1497,8348748.785078174
1533,513194.69713651677
1557,513194.69713651677
2228,11285347.726243534
2366,4318281.193427419
4114,31617162.35396881
4126,17417797.248170556
4162,14199365.105798254
4222,3517272.8945142386
4235,629.7340465297838
4350,13194614.72076874
4471,199004.8600456255
2,2, 1, 2, 0,15, 0.00,60.00,Friday
11,302611331.81565907
47,128304489.37582474
71,75362889.37582477
346,52941599.9999999
993,122509259.99999996
1017,122509259.99999996
1497,6928167.129092906
1533,427662.2476137639
1557,427662.2476137639
2228,9608243.677744434
2366,3285713.6481837609
4114,31925032.733035476
4126,17725667.62723722
4162,14199365.105798254
4222,3214791.23329538
4235,575.5776002621392
4350,10064714.43039711
4471,199016.02105719935
2,2, 1, 2, 0,16, 0.00,60.00,Friday
11,297532029.3664222
47,126531085.95182607
71,73589485.95182607
346,52941599.9999999
993,122509259.99999996
1017,122509259.99999996
1497,6240812.476809673
1533,427662.2476137639
1557,427662.2476137639
2228,9161504.369844348
2366,3102064.385129571
4114,32443046.22460289
4126,18243681.118804635
4162,14199365.105798254
4222,2711085.8440663379
4235,485.393971487474
4350,6687611.550033433
4471,199035.8761440953
2,2, 1, 2, 0,17, 0.00,60.00,Friday
11,293902673.5016632
47,130103579.20163416
71,77161979.20163419
346,52941599.9999999
993,122509259.99999996
1017,122509259.99999996
1497,43012256.36090585
1533,29024875.168857416
1557,29024875.168857416
2228,8108866.907386423
2366,3506731.8901120608
4114,32335310.61604411
4126,18135945.510245857
4162,14199365.105798254
4222,10480649.301936374
4235,523.0832351307486
4350,646106.9107637779
4471,199026.78259963927
2,2, 1, 2, 0,18, 0.00,60.00,Friday
11,283227215.784099
47,123776342.99999996
71,70834742.99999997
346,52941599.9999999
993,118102859.99999997
1017,118102859.99999997
1497,96795389.38988108
1533,29024875.168857416
1557,29024875.168857416
2228,9370688.309366776
2366,3051226.939097479
4114,31774867.137800829
4126,17575502.032002573
4162,14199365.105798254
4222,64719287.28192619
4235,4020.490335742366
4350,0.0
4471,198436.846595695
2,2, 1, 2, 0,19, 0.00,60.00,Friday
11,317807742.44557479
47,143344268.99999986
71,47505068.99999999
346,95839199.99999984
993,135564839.99999989
1017,135564839.99999989
1497,150981705.15759934
1533,28597212.921243654
1557,28597212.921243654
2228,7751867.233170716
2366,2922878.433690042
4114,30937286.49744486
4126,16737921.391646609
4162,14199365.105798254
4222,119461613.80266565
4235,11174.564700236126
4350,0.0
4471,198305.1502592273
2,2, 1, 2, 0,20, 0.00,60.00,Friday
11,374202371.488223
47,171942668.99999974
71,47505068.99999999
346,124437599.9999998
993,164163239.99999974
1017,164163239.99999974
1497,131277296.59730846
1533,0.0
1557,0.0
2228,7099155.272763627
2366,2444944.7985782667
4114,30786299.06976024
4126,16586933.963961985
4162,14199365.105798254
4222,128832351.79873018
4235,12514.839589322255
4350,0.0
4471,198493.3061101697
2,2, 1, 2, 0,21, 0.00,60.00,Friday
11,387904280.2492528
47,180270629.9999997
71,41533829.999999988
346,138736799.9999998
993,169616699.99999974
1017,169616699.99999974
1497,125755152.95531012
1533,0.0
1557,0.0
2228,6089089.724897293
2366,2259162.2022640069
4114,30893121.672377208
4126,16526653.097089958
4162,14199365.105798254
4222,123495990.75304611
4235,11537.109733825728
4350,824831.2356746583
4471,198370.5065702119
2,2, 1, 2, 0,22, 0.00,60.00,Friday
11,306018485.5031705
47,143777915.9999998
71,19340315.999999998
346,124437599.9999998
993,132085079.9999998
1017,132085079.9999998
1497,60991702.94902918
1533,0.0
1557,0.0
2228,4591768.264210386
2366,1873293.929829753
4114,24837087.863462878
4126,10490501.918585619
4162,14199365.105798254
4222,59118409.019199419
4235,0.0
4350,726633.3754975834
4471,0.0
2,2, 1, 2, 0,23, 0.00,60.00,Friday
11,214799622.03833504
47,96788438.99999984
71,5971238.999999999
346,90817199.99999984
993,90768869.99999985
1017,90768869.99999985
1497,61284726.27447217
1533,0.0
1557,0.0
2228,2527840.2111139495
2366,1340713.826175965
4114,24694012.5212
4126,10490501.918585619
4162,14199365.105798254
4222,59944012.448296207
4235,0.0
4350,20460.306021326294
4471,0.0
2,2, 1, 2, 0,24, 0.00,60.00,Friday
11,126195777.45363683
47,52754678.99999992
71,4835078.999999999
346,47919599.99999992
993,47320469.999999929
1017,47320469.999999929
1497,61696686.82836849
1533,0.0
1557,0.0
2228,1430761.429252994
2366,1309280.455450474
4114,24689867.024383874
4126,10490501.918585619
4162,14199365.105798254
4222,60387406.37291802
4235,0.0
4350,0.0
4471,0.0
2,3, 1, 3, 0, 1, 0.00,60.00,Saturday
11,67386733.89092097
47,24156278.99999996
71,4835078.999999999
346,19321199.999999968
993,18722069.99999997
1017,18722069.99999997
1497,1242505.1932830807
1533,0.0
1557,0.0
2228,1850678.4455106359
2366,1242505.1932830807
4114,22657706.44541039
4126,8458341.339612136
4162,14199365.105798254
4222,0.0
4235,0.0
4350,0.0
4471,0.0
2,3, 1, 3, 0, 2, 0.00,60.00,Saturday
11,67180738.24722071
47,24156278.99999996
71,4835078.999999999
346,19321199.999999968
993,18722069.99999997
1017,18722069.99999997
1497,1142395.014604527
1533,0.0
1557,0.0
2228,1644682.801810387
2366,1142395.014604527
4114,22657706.44541039
4126,8458341.339612136
4162,14199365.105798254
4222,0.0
4235,0.0
4350,0.0
4471,0.0
2,3, 1, 3, 0, 3, 0.00,60.00,Saturday
11,67155070.46219598
47,24156278.99999996
71,4835078.999999999
346,19321199.999999968
993,18722069.99999997
1017,18722069.99999997
1497,1309183.4140810776
1533,0.0
1557,0.0
2228,1619015.0167856506
2366,1309183.4140810776
4114,22657706.44541039
4126,8458341.339612136
4162,14199365.105798254
4222,0.0
4235,0.0
4350,0.0
4471,0.0
2,3, 1, 3, 0, 4, 0.00,60.00,Saturday
11,67132302.44801708
47,24156278.99999996
71,4835078.999999999
346,19321199.999999968
993,18722069.99999997
1017,18722069.99999997
1497,1096310.9983259715
1533,0.0
1557,0.0
2228,1593493.4182517429
2366,1037371.0659816443
4114,22660460.029765384
4126,8458341.339612136
4162,14199365.105798254
4222,58939.93234432725
4235,0.0
4350,0.0
4471,0.0
2,3, 1, 3, 0, 5, 0.00,60.00,Saturday
11,66409498.41633547
47,24156278.99999996
71,4835078.999999999
346,19321199.999999968
993,18722069.99999997
1017,18722069.99999997
1497,2708326.288991189
1533,0.0
1557,0.0
2228,796765.3641667508
2366,1037606.9570525048
4114,22734384.05216877
4126,8458341.339612136
4162,14199365.105798254
4222,1670719.3319386845
4235,0.0
4350,0.0
4471,0.0
2,3, 1, 3, 0, 6, 0.00,60.00,Saturday
11,126442970.96820535
47,52754678.99999992
71,4835078.999999999
346,47919599.99999992
993,47320469.999999929
1017,47320469.999999929
1497,64338406.10371449
1533,0.0
1557,0.0
2228,1593863.657765481
2366,1304925.7575966689
4114,24773958.3104399
4126,10490501.918585619
4162,14199365.105798254
4222,63033480.34611781
4235,0.0
4350,0.0
4471,0.0
2,3, 1, 3, 0, 7, 0.00,60.00,Saturday
11,193905610.46996735
47,80361638.99999988
71,5971238.999999999
346,74390399.99999988
993,69320069.9999999
1017,69320069.9999999
1497,611999304.3299077
1533,28597212.921243654
1557,28597212.921243654
2228,1606084.7596558058
2366,1046813.8206149181
4114,42142149.21578689
4126,18322192.72586626
4162,14199365.105798254
4222,582355277.5880492
4235,56093.56557690933
4350,0.0
4471,419573.9289479515
2,3, 1, 3, 0, 8, 0.00,60.00,Saturday
11,195239280.64948709
47,83688798.92140433
71,9298398.921404455
346,74390399.99999988
993,73192139.99999988
1017,73192139.99999988
1497,422347440.0143174
1533,28597212.921243654
1557,28597212.921243654
2228,3576312.9872306648
2366,1816320.2078192612
4114,34505654.648178938
4126,16519577.605455207
4162,14199365.105798254
4222,391933906.8852545
4235,43730.712649021516
4350,0.0
4471,232643.38002423463
2,3, 1, 3, 0, 9, 0.00,60.00,Saturday
11,229152506.56888909
47,101387825.63920994
71,26997425.63921008
346,74390399.99999988
993,90883619.99999987
1017,90883619.99999987
1497,268046693.2959267
1533,285108.16507584266
1557,285108.16507584266
2228,4634101.51620205
2366,1895744.3962526445
4114,32006813.922779498
4126,16519577.605455209
4162,14199365.105798256
4222,265865840.7345982
4235,30880.432214365435
4350,0.0
4471,209265.05848333633
2,3, 1, 3, 0,10, 0.00,60.00,Saturday
11,268481190.4467353
47,118129641.29183455
71,43739241.29183467
346,74390399.99999988
993,114116039.99999988
1017,114116039.99999988
1497,164413981.03257413
1533,285108.16507584266
1557,285108.16507584266
2228,4764764.770134943
2366,2388201.113789753
4114,31255337.03291799
4126,16563691.786056117
4162,14199365.105798256
4222,161740671.75370855
4235,15954.258288836776
4350,0.0
4471,199453.09355908785
2,3, 1, 3, 0,11, 0.00,60.00,Saturday
11,272290900.0822808
47,116633864.14372987
71,63692264.14372988
346,52941599.9999999
993,115899659.99999997
1017,115899659.99999997
1497,133574893.70455733
1533,513194.69713651677
1557,513194.69713651677
2228,8295736.681463011
2366,2709712.3579903685
4114,31251711.29688597
4126,16708537.886512276
4162,14199365.105798254
4222,130351986.64943046
4235,11140.463094816703
4350,426.35782490654688
4471,198361.13928234124
2,3, 1, 3, 0,12, 0.00,60.00,Saturday
11,275660112.3541417
47,116675499.25223956
71,63733899.252239558
346,52941599.9999999
993,115899659.99999997
1017,115899659.99999997
1497,111693274.0196388
1533,11952079.865633984
1557,11952079.865633984
2228,10472138.673570998
2366,3377287.951805936
4114,31469918.25701582
4126,16976510.34382242
4162,14199365.105798254
4222,96363906.20219888
4235,7310.41687738691
4350,937408.2408214817
4471,198177.5136165687
2,3, 1, 3, 0,13, 0.00,60.00,Saturday
11,274337472.3993948
47,113301033.31370425
71,60359433.31370427
346,52941599.9999999
993,114247259.99999997
1017,114247259.99999997
1497,93270297.33693104
1533,11952079.865633984
1557,11952079.865633984
2228,11241132.293776397
2366,3583109.695508485
4114,32218002.55341805
4126,17384569.8446674
4162,14199365.105798254
4222,77735107.77578856
4235,4261.669440419807
4350,3127367.083770868
4471,198415.48528497257
2,3, 1, 3, 0,14, 0.00,60.00,Saturday
11,276133063.02088066
47,113136511.95844782
71,60194911.95844783
346,52941599.9999999
993,114247259.99999997
1017,114247259.99999997
1497,54648525.94888818
1533,513194.69713651677
1557,513194.69713651677
2228,11004742.441302959
2366,3336903.195578954
4114,33102847.410120384
4126,18008873.221758058
4162,14199365.105798254
4222,50798428.05617271
4235,743.2539092487064
4350,4441970.004729225
4471,198987.9523711315
2,3, 1, 3, 0,15, 0.00,60.00,Saturday
11,275769506.5094429
47,113059239.68685636
71,60117639.686856377
346,52941599.9999999
993,114247259.99999997
1017,114247259.99999997
1497,46474803.666930098
1533,427662.2476137639
1557,427662.2476137639
2228,9586340.626473085
2366,2999585.9866661916
4114,33736044.88755365
4126,18542160.82520141
4162,14199365.105798254
4222,43047555.432650137
4235,442.97658737804718
4350,4941128.828870759
4471,199049.50310181629
2,3, 1, 3, 0,16, 0.00,60.00,Saturday
11,274501530.7956093
47,113417569.44539035
71,60475969.445390369
346,52941599.9999999
993,114247259.99999997
1017,114247259.99999997
1497,46578210.25127829
1533,427662.2476137639
1557,427662.2476137639
2228,9472074.45291035
2366,2891075.0919305689
4114,33746410.41419456
4126,18859345.441945808
4162,14199365.105798254
4222,43259472.91173396
4235,420.623571135976
4350,3418741.9234686235
4471,199053.93607434206
2,3, 1, 3, 0,17, 0.00,60.00,Saturday
11,274616854.1668444
47,117625082.24073221
71,64683482.24073224
346,52941599.9999999
993,114247259.99999997
1017,114247259.99999997
1497,82230038.06795052
1533,29024875.168857416
1557,29024875.168857416
2228,8506844.386107425
2366,2956411.88579945
4114,33301263.637505056
4126,18953714.223475037
4162,14199365.105798254
4222,50248751.013293657
4235,419.8372351614419
4350,736930.4337084892
4471,199053.63155619606
2,3, 1, 3, 0,18, 0.00,60.00,Saturday
11,266619498.46889294
47,111937382.99999996
71,64017782.99999998
346,47919599.99999992
993,113145659.99999997
1017,113145659.99999997
1497,106047804.2951122
1533,28597212.921243654
1557,28597212.921243654
2228,8948243.806604665
2366,2875606.2899442447
4114,32386763.106568017
4126,18187398.000769766
4162,14199365.105798254
4222,74574985.0839243
4235,2854.839589228649
4350,0.0
4471,198593.71613115847
2,3, 1, 3, 0,19, 0.00,60.00,Saturday
11,293154256.73704877
47,128942549.99999987
71,38125349.999999988
346,90817199.99999984
993,125066699.99999988
1017,125066699.99999988
1497,160337181.48500983
1533,28597212.921243654
1557,28597212.921243654
2228,8205138.329105204
2366,2547905.6993001119
4114,30728920.470130035
4126,16529555.364331782
4162,14199365.105798254
4222,129192062.86446604
4235,12474.958112947204
4350,0.0
4471,198472.97970079437
2,3, 1, 3, 0,20, 0.00,60.00,Saturday
11,316895642.34483268
47,142745273.9999998
71,23329673.999999994
346,119415599.9999998
993,138176819.9999998
1017,138176819.9999998
1497,93901076.97693879
1533,0.0
1557,0.0
2228,7014074.144228557
2366,2425419.19054268
4114,28696285.719947928
4126,14487417.026481722
4162,14199365.105798254
4222,91475657.78639612
4235,16377.840976355823
4350,47247.14641661331
4471,199563.49326356562
2,3, 1, 3, 0,21, 0.00,60.00,Saturday
11,344970435.20950028
47,157044473.99999977
71,23329673.999999994
346,133714799.99999979
993,152476019.99999977
1017,152476019.99999977
1497,129192629.56557727
1533,0.0
1557,0.0
2228,5823554.317664183
2366,2044172.6205232912
4114,28806426.012407487
4126,14487417.026481722
4162,14199365.105798254
4222,127148456.94505398
4235,22764.714227010543
4350,594708.9064497916
4471,202487.2587521423
2,3, 1, 3, 0,22, 0.00,60.00,Saturday
11,283518858.7916798
47,127949597.9999998
71,8533997.999999999
346,119415599.9999998
993,122688539.9999998
1017,122688539.9999998