Program Version,EnergyPlus, Version 9.0.1-bb7ca4f0da, YMD=2019.12.17 17:27
1,5,Environment Title[],Latitude[deg],Longitude[deg],Time Zone[],Elevation[m]
2,8,Day of Simulation[],Month[],Day of Month[],DST Indicator[1=yes 0=no],Hour[],StartMinute[],EndMinute[],DayType
3,5,Cumulative Day of Simulation[],Month[],Day of Month[],DST Indicator[1=yes 0=no],DayType  ! When Daily Meters Requested
4,2,Cumulative Days of Simulation[],Month[]  ! When Monthly Meters Requested
5,1,Cumulative Days of Simulation[] ! When Run Period Meters Requested
6,1,Calendar Year of Simulation[] ! When Annual Meters Requested
993,1,InteriorEquipment:Electricity [J] !Hourly
47,1,InteriorLights:Electricity [J] !Hourly
4473,1,Pumps:Electricity [J] !Hourly
1017,1,Receptacle:InteriorEquipment:Electricity [J] !Hourly
4114,1,Fans:Electricity [J] !Hourly
11,1,Electricity:Facility [J] !Hourly
4348,1,Cooling:Electricity [J] !Hourly
4210,1,Heating:Electricity [J] !Hourly
4162,1,ProcessMotors:Fans:Electricity [J] !Hourly
2366,1,WaterSystems:Gas [J] !Hourly
2228,1,WaterSystems:Electricity [J] !Hourly
1497,1,Gas:Facility [J] !Hourly
1533,1,InteriorEquipment:Gas [J] !Hourly
4236,1,Heating:Gas [J] !Hourly
1557,1,Receptacle:InteriorEquipment:Gas [J] !Hourly
71,1,ComplianceLtg:InteriorLights:Electricity [J] !Hourly
346,1,NonComplianceLtg:InteriorLights:Electricity [J] !Hourly
4126,1,General:Fans:Electricity [J] !Hourly
End of Data Dictionary
1,TORRANCE_722955_CZ2010,  33.80,-118.33,  -8.00,  27.00
2,1, 1, 1, 0, 1, 0.00,60.00,Holiday
11,66339148.91999798
47,24156278.99999996
71,4835078.999999999
346,19321199.999999968
993,18722069.99999997
1017,18722069.99999997
1497,1040418.5567212388
1533,0.0
1557,0.0
2228,803093.4745876474
2366,1040418.5567212388
4114,22657706.44541039
4126,8458341.339612136
4162,14199365.105798254
4210,0.0
4236,0.0
4348,0.0
4473,0.0
2,1, 1, 1, 0, 2, 0.00,60.00,Holiday
11,67142137.5558287
47,24156278.99999996
71,4835078.999999999
346,19321199.999999968
993,18722069.99999997
1017,18722069.99999997
1497,1040341.1893008226
1533,0.0
1557,0.0
2228,1606082.1104183698
2366,1040341.1893008226
4114,22657706.44541039
4126,8458341.339612136
4162,14199365.105798254
4210,0.0
4236,0.0
4348,0.0
4473,0.0
2,1, 1, 1, 0, 3, 0.00,60.00,Holiday
11,67142123.61280781
47,24156278.99999996
71,4835078.999999999
346,19321199.999999968
993,18722069.99999997
1017,18722069.99999997
1497,1227422.9674882754
1533,0.0
1557,0.0
2228,1606068.1673974628
2366,1227422.9674882754
4114,22657706.44541039
4126,8458341.339612136
4162,14199365.105798254
4210,0.0
4236,0.0
4348,0.0
4473,0.0
2,1, 1, 1, 0, 4, 0.00,60.00,Holiday
11,66332896.03581127
47,24156278.99999996
71,4835078.999999999
346,19321199.999999968
993,18722069.99999997
1017,18722069.99999997
1497,1107871.9671500289
1533,0.0
1557,0.0
2228,796840.5904009363
2366,1107871.9671500289
4114,22657706.44541039
4126,8458341.339612136
4162,14199365.105798254
4210,0.0
4236,0.0
4348,0.0
4473,0.0
2,1, 1, 1, 0, 5, 0.00,60.00,Holiday
11,67140813.48077412
47,24156278.99999996
71,4835078.999999999
346,19321199.999999968
993,18722069.99999997
1017,18722069.99999997
1497,1291947.8076925583
1533,0.0
1557,0.0
2228,1593398.550072062
2366,1035140.8327456334
4114,22669065.930702107
4126,8458341.339612136
4162,14199365.105798254
4210,0.0
4236,256806.9749469248
4348,0.0
4473,0.0
2,1, 1, 1, 0, 6, 0.00,60.00,Holiday
11,149445412.89274443
47,52754678.99999992
71,4835078.999999999
346,47919599.99999992
993,47320469.999999929
1017,47320469.999999929
1497,3412146.7243482249
1533,0.0
1557,0.0
2228,796870.4476119159
2366,1041757.4216660804
4114,24794717.810964168
4126,10490501.918585619
4162,14199365.105798254
4210,23778675.63416837
4236,2370389.3026821448
4348,0.0
4473,0.0
2,1, 1, 1, 0, 7, 0.00,60.00,Holiday
11,206349321.11685113
47,74203478.99999988
71,4835078.999999999
346,69368399.9999999
993,68769269.9999999
1017,68769269.9999999
1497,303789168.52116176
1533,28597212.921243654
1557,28597212.921243654
2228,1606130.3854648099
2366,1300463.140636723
4114,36805072.57030025
4126,10490501.91858562
4162,14199365.105798252
4210,24965369.16108626
4236,273891492.45928147
4348,0.0
4473,0.0
2,1, 1, 1, 0, 8, 0.00,60.00,Holiday
11,202035296.70521916
47,74179441.45002774
71,4811041.450027847
346,69368399.9999999
993,68769269.9999999
1017,68769269.9999999
1497,210616562.05283878
1533,28597212.921243654
1557,28597212.921243654
2228,1644646.6186878249
2366,1054939.531129615
4114,32694573.430001543
4126,10490501.918585619
4162,14199365.105798254
4210,24747365.206502174
4236,180964409.60046555
4348,0.0
4473,0.0
2,1, 1, 1, 0, 9, 0.00,60.00,Holiday
11,213963448.62248419
47,77621585.82705572
71,8253185.827055847
346,69368399.9999999
993,72641339.99999988
1017,72641339.99999988
1497,483588828.49618
1533,0.0
1557,0.0
2228,2507421.1367775967
2366,1331755.3565071538
4114,40584353.21461739
4126,20902091.729312004
4162,14199365.105798254
4210,19960526.094232695
4236,482257073.13967278
4348,0.0
4473,648222.3498008493
2,1, 1, 1, 0,10, 0.00,60.00,Holiday
11,197562692.41640959
47,77299955.7273951
71,7931555.727395236
346,69368399.9999999
993,72641339.99999988
1017,72641339.99999988
1497,305315071.9162919
1533,0.0
1557,0.0
2228,2548512.3124560986
2366,1492794.1086095009
4114,32628557.660978967
4126,16519577.605455207
4162,14199365.105798254
4210,12190130.95297082
4236,303822277.8076824
4348,0.0
4473,254195.7626087
2,1, 1, 1, 0,11, 0.00,60.00,Holiday
11,197015879.5979206
47,75774189.89623179
71,27854589.89623183
346,47919599.99999992
993,74424959.99999996
1017,74424959.99999996
1497,147103989.74596069
1533,0.0
1557,0.0
2228,5823164.976440022
2366,1913115.097903634
4114,31100948.18343553
4126,16519577.605455207
4162,14199365.105798254
4210,9688610.047907096
4236,145190874.64805705
4348,0.0
4473,204006.49390624738
2,1, 1, 1, 0,12, 0.00,60.00,Holiday
11,195109460.35159523
47,75790591.66574966
71,27870991.665749704
346,47919599.99999992
993,74424959.99999996
1017,74424959.99999996
1497,95631213.98182206
1533,11438885.168497468
1557,11438885.168497468
2228,5937094.831212848
2366,2312577.1985760715
4114,30718942.711253466
4126,16519577.605455209
4162,14199365.105798256
4210,8038989.672477616
4236,81879751.61474853
4348,0.0
4473,198881.47090173275
2,1, 1, 1, 0,13, 0.00,60.00,Holiday
11,222672611.83794878
47,85719933.29444415
71,37800333.29444418
346,47919599.99999992
993,89913239.99999997
1017,89913239.99999997
1497,26647643.247033039
1533,11438885.168497468
1557,11438885.168497468
2228,6464394.358149797
2366,2117757.8408688178
4114,30908873.274439478
4126,16519577.605455209
4162,14199365.105798254
4210,6579050.647478607
4236,13091000.237666753
4348,2888449.252667671
4473,198671.01076916906
2,1, 1, 1, 0,14, 0.00,60.00,Holiday
11,230399931.0329591
47,85726506.4122977
71,37806906.412297729
346,47919599.99999992
993,89913239.99999997
1017,89913239.99999997
1497,11980752.570917558
1533,0.0
1557,0.0
2228,7050600.407739529
2366,2437862.0316302406
4114,31578185.910072496
4126,16519577.605455207
4162,14199365.105798254
4210,5730515.146907018
4236,9542890.539287318
4348,10202108.107199923
4473,198775.048742522
2,1, 1, 1, 0,15, 0.00,60.00,Holiday
11,230133541.62074019
47,86212327.17447907
71,38292727.1744791
346,47919599.99999992
993,89913239.99999997
1017,89913239.99999997
1497,11500603.397663154
1533,0.0
1557,0.0
2228,6277296.985173621
2366,2358500.340517004
4114,31590967.04616055
4126,16519577.605455207
4162,14199365.105798254
4210,5859368.26876736
4236,9142103.057146149
4348,10081558.379452317
4473,198783.76670738183
2,1, 1, 1, 0,16, 0.00,60.00,Holiday
11,230007666.47615577
47,86220802.30983857
71,38301202.30983859
346,47919599.99999992
993,89913239.99999997
1017,89913239.99999997
1497,10989718.60354264
1533,0.0
1557,0.0
2228,7037009.843127137
2366,2131262.6084997926
4114,31413477.37485358
4126,16541078.857254129
4162,14199365.105798254
4210,5789332.338139077
4236,8858455.99504285
4348,9435013.969027257
4473,198790.6411702504
2,1, 1, 1, 0,17, 0.00,60.00,Holiday
11,228465799.78046269
47,89241839.72887975
71,41322239.72887976
346,47919599.99999992
993,89913239.99999997
1017,89913239.99999997
1497,39664937.9895359
1533,28597212.921243654
1557,28597212.921243654
2228,7335171.457775302
2366,2421515.0864378775
4114,30980067.53949363
4126,16554272.188028122
4162,14199365.105798254
4210,6334590.119717238
4236,8646209.98185437
4348,4462094.711504364
4473,198796.2230924738
2,1, 1, 1, 0,18, 0.00,60.00,Holiday
11,197608577.01570825
47,78647111.99999994
71,30727511.99999999
346,47919599.99999992
993,74424959.99999996
1017,74424959.99999996
1497,65226317.680879209
1533,28597212.921243654
1557,28597212.921243654
2228,6127939.097999312
2366,2084721.8176538419
4114,30720434.03488802
4126,16519577.605455207
4162,14199365.105798254
4210,7482465.372648241
4236,34544382.94198172
4348,7380.445770026179
4473,198286.06440279092
2,1, 1, 1, 0,19, 0.00,60.00,Holiday
11,242163605.2212692
47,106749035.99999982
71,15931835.999999995
346,90817199.99999984
993,101834279.99999984
1017,101834279.99999984
1497,135978590.1775134
1533,28597212.921243654
1557,28597212.921243654
2228,4674733.094043185
2366,1988595.7390869754
4114,28686782.132279979
4126,14487417.026481722
4162,14199365.105798254
4210,18869.568773966574
4236,105392781.51718275
4348,0.0
4473,199904.42617233486
2,1, 1, 1, 0,20, 0.00,60.00,Holiday
11,271427528.6901877
47,124250678.9999998
71,4835078.999999999
346,119415599.9999998
993,118816469.99999982
1017,118816469.99999982
1497,1722068.723749629
1533,0.0
1557,0.0
2228,5413702.300933201
2366,1722068.723749629
4114,22706328.35143381
4126,8458341.339612136
4162,14199365.105798254
4210,0.0
4236,0.0
4348,240349.0378209234
4473,0.0
2,1, 1, 1, 0,21, 0.00,60.00,Holiday
11,299651466.2431427
47,138549878.9999998
71,4835078.999999999
346,133714799.99999979
993,133115669.99999979
1017,133115669.99999979
1497,1751066.4710535128
1533,0.0
1557,0.0
2228,3891447.835683181
2366,1751066.4710535128
4114,22899521.72532919
4126,8458341.339612136
4162,14199365.105798254
4210,0.0
4236,0.0
4348,1194947.6821306153
4473,0.0
2,1, 1, 1, 0,22, 0.00,60.00,Holiday
11,270268422.85882726
47,124250678.9999998
71,4835078.999999999
346,119415599.9999998
993,118816469.99999982
1017,118816469.99999982
1497,1560610.5951435304
1533,0.0
1557,0.0
2228,3447470.553604464
2366,1560610.5951435304
4114,22842201.862057307
4126,8458341.339612136
4162,14199365.105798254
4210,0.0
4236,0.0
4348,911601.4431657289
4473,0.0
2,1, 1, 1, 0,23, 0.00,60.00,Holiday
11,210394247.8365705
47,95652278.99999984
71,4835078.999999999
346,90817199.99999984
993,90218069.99999985
1017,90218069.99999985
1497,1318990.961178399
1533,0.0
1557,0.0
2228,1651975.2067827485
2366,1318990.961178399
4114,22693776.705881709
4126,8458341.339612136
4162,14199365.105798254
4210,0.0
4236,0.0
4348,178146.92390627074
4473,0.0
2,1, 1, 1, 0,24, 0.00,60.00,Holiday
11,123529738.9134061
47,52754678.99999992
71,4835078.999999999
346,47919599.99999992
993,47320469.999999929
1017,47320469.999999929
1497,1035602.7029937636
1533,0.0
1557,0.0
2228,796883.4679957442
2366,1035602.7029937636
4114,22657706.44541039
4126,8458341.339612136
4162,14199365.105798254
4210,0.0
4236,0.0
4348,0.0
4473,0.0
2,2, 1, 2, 0, 1, 0.00,60.00,Friday
11,66320581.775476079
47,24156278.99999996
71,4835078.999999999
346,19321199.999999968
993,18722069.99999997
1017,18722069.99999997
1497,1027872.742208547
1533,0.0
1557,0.0
2228,784526.3300657396
2366,1027872.742208547
4114,22657706.44541039
4126,8458341.339612136
4162,14199365.105798254
4210,0.0
4236,0.0
4348,0.0
4473,0.0
2,2, 1, 2, 0, 2, 0.00,60.00,Friday
11,67117434.28314108
47,24156278.99999996
71,4835078.999999999
346,19321199.999999968
993,18722069.99999997
1017,18722069.99999997
1497,1032638.5384384252
1533,0.0
1557,0.0
2228,1581378.8377307403
2366,1032638.5384384252
4114,22657706.44541039
4126,8458341.339612136
4162,14199365.105798254
4210,0.0
4236,0.0
4348,0.0
4473,0.0
2,2, 1, 2, 0, 3, 0.00,60.00,Friday
11,66326685.6262098
47,24156278.99999996
71,4835078.999999999
346,19321199.999999968
993,18722069.99999997
1017,18722069.99999997
1497,1032743.9011058824
1533,0.0
1557,0.0
2228,790630.1807994626
2366,1032743.9011058824
4114,22657706.44541039
4126,8458341.339612136
4162,14199365.105798254
4210,0.0
4236,0.0
4348,0.0
4473,0.0
2,2, 1, 2, 0, 4, 0.00,60.00,Friday
11,66320711.15524589
47,24156278.99999996
71,4835078.999999999
346,19321199.999999968
993,18722069.99999997
1017,18722069.99999997
1497,1028008.0584621902
1533,0.0
1557,0.0
2228,784655.7098355615
2366,1028008.0584621902
4114,22657706.44541039
4126,8458341.339612136
4162,14199365.105798254
4210,0.0
4236,0.0
4348,0.0
4473,0.0
2,2, 1, 2, 0, 5, 0.00,60.00,Friday
11,66320724.994119029
47,24156278.99999996
71,4835078.999999999
346,19321199.999999968
993,18722069.99999997
1017,18722069.99999997
1497,1027984.1692108004
1533,0.0
1557,0.0
2228,784669.5487086917
2366,1027984.1692108004
4114,22657706.44541039
4126,8458341.339612136
4162,14199365.105798254
4210,0.0
4236,0.0
4348,0.0
4473,0.0
2,2, 1, 2, 0, 6, 0.00,60.00,Friday
11,137346156.91759504
47,53890838.99999992
71,5971238.999999999
346,47919599.99999992
993,47871269.999999929
1017,47871269.999999929
1497,1034303.2644199925
1533,0.0
1557,0.0
2228,784736.3448968774
2366,1034303.2644199925
4114,24689867.024383874
4126,10490501.918585619
4162,14199365.105798254
4210,10109444.54831431
4236,0.0
4348,0.0
4473,0.0
2,2, 1, 2, 0, 7, 0.00,60.00,Friday
11,196927610.99067734
47,80361638.99999988
71,5971238.999999999
346,74390399.99999988
993,69320069.9999999
1017,69320069.9999999
1497,358896732.4699507
1533,28597212.921243654
1557,28597212.921243654
2228,784733.7478062634
2366,1032299.6134535726
4114,35886049.906868729
4126,19440236.208920529
4162,14199365.105798252
4210,9985888.395096075
4236,329267219.93525347
4348,0.0
4473,589229.940906474
2,2, 1, 2, 0, 8, 0.00,60.00,Friday
11,224012273.00892589
47,95965536.25097385
71,21575136.250973979
346,74390399.99999988
993,83139479.99999988
1017,83139479.99999988
1497,271119239.47835817
1533,28882321.086319496
1557,28882321.086319496
2228,2570431.4657083784
2366,1776274.9202221165
4114,32126989.44060286
4126,16519577.605455207
4162,14199365.105798254
4210,9986547.606863153
4236,240460643.47181655
4348,0.0
4473,223288.24477777334
2,2, 1, 2, 0, 9, 0.00,60.00,Friday
11,284003496.87543967
47,125802875.02318743
71,51412475.02318755
346,74390399.99999988
993,112981499.99999987
1017,112981499.99999987
1497,160966787.44187606
1533,285108.16507584266
1557,285108.16507584266
2228,4594103.316834984
2366,2306554.006235988
4114,31871946.415720799
4126,16519577.605455207
4162,14199365.105798254
4210,8550151.84442131
4236,158375125.2705642
4348,0.0
4473,202920.27527525277
2,2, 1, 2, 0,10, 0.00,60.00,Friday
11,338680222.28648558
47,151118158.90467198
71,76727758.90467201
346,74390399.99999988
993,143958059.99999995
1017,143958059.99999995
1497,82617075.64058179
1533,285108.16507584266
1557,285108.16507584266
2228,5999270.26241982
2366,2838818.448800016
4114,31557326.918764697
4126,16571298.735954378
4162,14199365.105798254
4210,5849005.058114844
4236,79493149.02670595
4348,0.0
4473,198401.14251439417
2,2, 1, 2, 0,11, 0.00,60.00,Friday
11,294702644.99058887
47,129391052.6349885
71,76449452.63498852
346,52941599.9999999
993,122509259.99999996
1017,122509259.99999996
1497,35041396.11135368
1533,513194.69713651677
1557,513194.69713651677
2228,7907913.166992604
2366,3087913.029719443
4114,31412820.359438376
4126,16654174.614042657
4162,14199365.105798254
4210,3283046.840174918
4236,31440288.384497718
4348,0.0
4473,198551.9889945033
2,2, 1, 2, 0,12, 0.00,60.00,Friday
11,299660854.2324943
47,129214478.45419963
71,76272878.45419964
346,52941599.9999999
993,122509259.99999996
1017,122509259.99999996
1497,23053712.183111319
1533,11952079.865633984
1557,11952079.865633984
2228,11276810.49369404
2366,3841165.310805929
4114,31175339.152196804
4126,16900062.3599173
4162,14199365.105798254
4210,1377644.9542369613
4236,7260467.006671403
4348,3908392.99181909
4473,198928.18634792669
2,2, 1, 2, 0,13, 0.00,60.00,Friday
11,305332008.08792778
47,128907681.66862466
71,75966081.66862467
346,52941599.9999999
993,122509259.99999996
1017,122509259.99999996
1497,20483827.68596348
1533,11952079.865633984
1557,11952079.865633984
2228,11703820.657637613
2366,4107382.7424518719
4114,31258726.84533443
4126,17057368.953644769
4162,14199365.105798254
4210,1192011.372373515
4236,4424365.077877624
4348,9561535.604008986
4473,198971.93994865963
2,2, 1, 2, 0,14, 0.00,60.00,Friday
11,306959162.0779885
47,128028893.98722202
71,75087293.98722203
346,52941599.9999999
993,122509259.99999996
1017,122509259.99999996
1497,8319059.649459713
1533,513194.69713651677
1557,513194.69713651677
2228,11284685.438342916
2366,4318728.419215789
4114,31629444.131996857
4126,17430079.026198605
4162,14199365.105798254
4210,624.3384194671221
4236,3487136.533107408
4348,13307248.12645776
4473,199006.05554959333
2,2, 1, 2, 0,15, 0.00,60.00,Friday
11,302709221.9673437
47,128304489.37582474
71,75362889.37582477
346,52941599.9999999
993,122509259.99999996
1017,122509259.99999996
1497,6913499.362553412
1533,427662.2476137639
1557,427662.2476137639
2228,9608818.602805246
2366,3285323.314170403
4114,31936214.793600799
4126,17736849.687802547
4162,14199365.105798254
4210,573.0213626233818
4236,3200513.8007692454
4348,10150849.573002115
4473,199016.60074832789
2,2, 1, 2, 0,16, 0.00,60.00,Friday
11,297673744.72371879
47,126531085.95182607
71,73589485.95182607
346,52941599.9999999
993,122509259.99999996
1017,122509259.99999996
1497,6212805.182636609
1533,427662.2476137639
1557,427662.2476137639
2228,9161502.5038748
2366,3102481.7330549585
4114,32453675.325316609
4126,18254310.219518357
4162,14199365.105798254
4210,480.3048113834241
4236,2682661.2019678878
4348,6818703.586820711
4473,199037.05106925398
2,2, 1, 2, 0,17, 0.00,60.00,Friday
11,295039186.2207187
47,130103579.20163416
71,77161979.20163419
346,52941599.9999999
993,122509259.99999996
1017,122509259.99999996
1497,35438891.02724782
1533,29024875.168857416
1557,29024875.168857416
2228,8108869.091740206
2366,3506298.474284192
4114,32346636.163750318
4126,18147271.05795206
4162,14199365.105798254
4210,1124810.3608783172
4236,2907717.3841062115
4348,647004.0351421146
4473,199027.36757367454
2,2, 1, 2, 0,18, 0.00,60.00,Friday
11,289514625.51466479
47,123776342.99999996
71,70834742.99999997
346,52941599.9999999
993,118102859.99999997
1017,118102859.99999997
1497,54543741.70200186
1533,29024875.168857416
1557,29024875.168857416
2228,9370686.435384267
2366,3051226.5345182458
4114,31761481.828190186
4126,17562116.72239193
4162,14199365.105798254
4210,6304813.038562141
4236,22467639.998626204
4348,0.0
4473,198441.21252825313
2,2, 1, 2, 0,19, 0.00,60.00,Friday
11,326137582.32084116
47,143344268.99999986
71,47505068.99999999
346,95839199.99999984
993,135564839.99999989
1017,135564839.99999989
1497,94159151.60032632
1533,28597212.921243654
1557,28597212.921243654
2228,7751868.297078321
2366,2922876.8788109275
4114,30938271.142945775
4126,16738906.037147522
4162,14199365.105798254
4210,8340029.401795365
4236,62639061.800271738
4348,0.0
4473,198304.4790219806
2,2, 1, 2, 0,20, 0.00,60.00,Friday
11,383017720.8794178
47,171942668.99999974
71,47505068.99999999
346,124437599.9999998
993,164163239.99999974
1017,164163239.99999974
1497,72305717.65444494
1533,0.0
1557,0.0
2228,7098316.151695819
2366,2444946.1014776385
4114,30786926.149255936
4126,16587561.04345768
4162,14199365.105798254
4210,8828078.226908274
4236,69860771.5529673
4348,0.0
4473,198491.35155823927
2,2, 1, 2, 0,21, 0.00,60.00,Friday
11,396946107.24525299
47,180270629.9999997
71,41533829.999999988
346,138736799.9999998
993,169616699.99999974
1017,169616699.99999974
1497,66625044.38684393
1533,0.0
1557,0.0
2228,6089919.991358032
2366,2259789.112896612
4114,30903720.398283557
4126,16526947.817486756
4162,14199365.105798254
4210,8991078.188006092
4236,64365255.27394731
4348,875689.6913713822
4473,198368.9762342834
2,2, 1, 2, 0,22, 0.00,60.00,Friday
11,315108528.4391954
47,143777915.9999998
71,19340315.999999998
346,124437599.9999998
993,132085079.9999998
1017,132085079.9999998
1497,1872709.0837178883
1533,0.0
1557,0.0
2228,4591770.892882538
2366,1872709.0837178883
4114,24841707.16265835
4126,10490501.918585619
4162,14199365.105798254
4210,9062622.930016265
4236,0.0
4348,749431.4536385487
4473,0.0
2,2, 1, 2, 0,23, 0.00,60.00,Friday
11,224955255.3305076
47,96788438.99999984
71,5971238.999999999
346,90817199.99999984
993,90768869.99999985
1017,90768869.99999985
1497,1340713.3938205268
1533,0.0
1557,0.0
2228,2527839.6633267907
2366,1340713.3938205268
4114,24696043.63002427
4126,10490501.918585619
4162,14199365.105798254
4210,10143578.165558085
4236,0.0
4348,30484.871598725393
4473,0.0
2,2, 1, 2, 0,24, 0.00,60.00,Friday
11,136959816.3429097
47,52754678.99999992
71,4835078.999999999
346,47919599.99999992
993,47320469.999999929
1017,47320469.999999929
1497,1309279.4915780742
1533,0.0
1557,0.0
2228,1427396.085882248
2366,1309279.4915780742
4114,24689867.024383874
4126,10490501.918585619
4162,14199365.105798254
4210,10767404.232643627
4236,0.0
4348,0.0
4473,0.0
2,3, 1, 3, 0, 1, 0.00,60.00,Saturday
11,67390183.1460886
47,24156278.99999996
71,4835078.999999999
346,19321199.999999968
993,18722069.99999997
1017,18722069.99999997
1497,1243338.3698923537
1533,0.0
1557,0.0
2228,1854127.70067827
2366,1243338.3698923537
4114,22657706.44541039
4126,8458341.339612136
4162,14199365.105798254
4210,0.0
4236,0.0
4348,0.0
4473,0.0
2,3, 1, 3, 0, 2, 0.00,60.00,Saturday
11,67180737.7467076
47,24156278.99999996
71,4835078.999999999
346,19321199.999999968
993,18722069.99999997
1017,18722069.99999997
1497,1141565.1880278863
1533,0.0
1557,0.0
2228,1644682.3012972703
2366,1141565.1880278863
4114,22657706.44541039
4126,8458341.339612136
4162,14199365.105798254
4210,0.0
4236,0.0
4348,0.0
4473,0.0
2,3, 1, 3, 0, 3, 0.00,60.00,Saturday
11,67155069.97518565
47,24156278.99999996
71,4835078.999999999
346,19321199.999999968
993,18722069.99999997
1017,18722069.99999997
1497,1309183.7510393826
1533,0.0
1557,0.0
2228,1619014.5297753094
2366,1309183.7510393826
4114,22657706.44541039
4126,8458341.339612136
4162,14199365.105798254
4210,0.0
4236,0.0
4348,0.0
4473,0.0
2,3, 1, 3, 0, 4, 0.00,60.00,Saturday
11,67132211.5820891
47,24156278.99999996
71,4835078.999999999
346,19321199.999999968
993,18722069.99999997
1017,18722069.99999997
1497,1097552.564606901
1533,0.0
1557,0.0
2228,1593494.1129898518
2366,1037371.4707254297
4114,22660368.469099299
4126,8458341.339612136
4162,14199365.105798254
4210,0.0
4236,60181.093881471235
4348,0.0
4473,0.0
2,3, 1, 3, 0, 5, 0.00,60.00,Saturday
11,66407115.24663058
47,24156278.99999996
71,4835078.999999999
346,19321199.999999968
993,18722069.99999997
1017,18722069.99999997
1497,2717207.180371479
1533,0.0
1557,0.0
2228,796765.1198554535
2366,1037607.3541540597
4114,22732001.126775177
4126,8458341.339612136
4162,14199365.105798254
4210,0.0
4236,1679599.8262174195
4348,0.0
4473,0.0
2,3, 1, 3, 0, 6, 0.00,60.00,Saturday
11,138689525.20199806
47,52754678.99999992
71,4835078.999999999
346,47919599.99999992
993,47320469.999999929
1017,47320469.999999929
1497,3193753.60196085
1533,0.0
1557,0.0
2228,1593863.1740713218
2366,1304925.5403618713
4114,24773416.626832319
4126,10490501.918585619
4162,14199365.105798254
4210,12247096.401094454
4236,1888828.061598979
4348,0.0
4473,0.0
2,3, 1, 3, 0, 7, 0.00,60.00,Saturday
11,206278211.3579609
47,80361638.99999988
71,5971238.999999999
346,74390399.99999988
993,69320069.9999999
1017,69320069.9999999
1497,545125054.5311724
1533,28597212.921243654
1557,28597212.921243654
2228,1606130.7785198908
2366,1046772.2825466072
4114,42890281.91465571
4126,18369673.62296948
4162,14199365.105798254
4210,11690659.207970474
4236,515481069.32738217
4348,0.0
4473,409430.45681507638
2,3, 1, 3, 0, 8, 0.00,60.00,Saturday
11,206965171.49542434
47,83688798.92140433
71,9298398.921404455
346,74390399.99999988
993,73192139.99999988
1017,73192139.99999988
1497,360575847.9003874
1533,28597212.921243654
1557,28597212.921243654
2228,3576312.0336353427
2366,1816998.463490996
4114,34864654.999033939
4126,16519577.605455207
4162,14199365.105798254
4210,11410851.00965874
4236,330161636.5156527
4348,0.0
4473,232414.53169204296
2,3, 1, 3, 0, 9, 0.00,60.00,Saturday
11,240091273.43454636
47,101387825.63920994
71,26997425.63921008
346,74390399.99999988
993,90883619.99999987
1017,90883619.99999987
1497,206981856.75592456
1533,285108.16507584266
1557,285108.16507584266
2228,4634102.233770313
2366,1895046.9528252367
4114,32165559.55946996
4126,16519577.605455209
4162,14199365.105798256
4210,10810979.35257732
4236,204801701.6380235
4348,0.0
4473,209186.6495189122
2,3, 1, 3, 0,10, 0.00,60.00,Saturday
11,278581256.9092158
47,118129641.29183455
71,43739241.29183467
346,74390399.99999988
993,114116039.99999988
1017,114116039.99999988
1497,104364126.67391062
1533,285108.16507584266
1557,285108.16507584266
2228,4764763.8526058639
2366,2388201.823246278
4114,31323501.292736334
4126,16563691.777651255
4162,14199365.105798256
4210,10047862.683376279
4236,101690816.68558847
4348,0.0
4473,199447.7886628613
2,3, 1, 3, 0,11, 0.00,60.00,Saturday
11,281644348.31607529
47,116633864.14372987
71,63692264.14372988
346,52941599.9999999
993,115899659.99999997
1017,115899659.99999997
1497,74167710.00348638
1533,513194.69713651677
1557,513194.69713651677
2228,8294932.383783092
2366,2710208.797963227
4114,31296670.454474138
4126,16709346.869133262
4162,14199365.105798254
4210,9319479.379727915
4236,70944306.50838664
4348,1381.64008133435
4473,198360.31427902464
2,3, 1, 3, 0,12, 0.00,60.00,Saturday
11,283428553.76684
47,116675499.25223956
71,63733899.252239558
346,52941599.9999999
993,115899659.99999997
1017,115899659.99999997
1497,58683048.53233035
1533,11952079.865633984
1557,11952079.865633984
2228,10472127.515863572
2366,3376748.379496416
4114,31480786.836960816
4126,16977295.318676164
4162,14199365.105798254
4210,7758190.645127064
4236,43354220.28719996
4348,944111.7222514032
4473,198177.79439773193
2,3, 1, 3, 0,13, 0.00,60.00,Saturday
11,282266300.53693827
47,113301033.31370425
71,60359433.31370427
346,52941599.9999999
993,114247259.99999997
1017,114247259.99999997
1497,39175034.756536658
1533,11952079.865633984
1557,11952079.865633984
2228,11242136.527739212
2366,3583627.326457048
4114,32229473.802565904
4126,17393837.866061383
4162,14199365.105798254
4210,7909767.8793929149
4236,23639327.564445624
4348,3138207.9538924337
4473,198421.0596436205
2,3, 1, 3, 0,14, 0.00,60.00,Saturday
11,283087924.54979386
47,113136511.95844782
71,60194911.95844783
346,52941599.9999999
993,114247259.99999997
1017,114247259.99999997
1497,7918395.441979101
1533,513194.69713651677
1557,513194.69713651677
2228,11004738.178652699
2366,3336903.829975236
4114,33114410.894513955
4126,18018785.024699317
4162,14199365.105798254
4210,6935827.584039914
4236,4068296.914867348
4348,4450185.082555689
4473,198990.85158392066
2,3, 1, 3, 0,15, 0.00,60.00,Saturday
11,281883451.5280659
47,113059239.68685636
71,60117639.686856377
346,52941599.9999999
993,114247259.99999997
1017,114247259.99999997
1497,5886355.823251167
1533,427662.2476137639
1557,427662.2476137639
2228,9586336.752655838
2366,2999585.040442356
4114,33748014.43090421
4126,18552793.682454818
4162,14199365.105798254
4210,6095766.447110677
4236,2459108.535195048
4348,4947784.115881856
4473,199050.09465707324
2,3, 1, 3, 0,16, 0.00,60.00,Saturday
11,280663644.940376
47,113417569.44539035
71,60475969.445390369
346,52941599.9999999
993,114247259.99999997
1017,114247259.99999997
1497,5637946.019251246
1533,427662.2476137639
1557,427662.2476137639
2228,9472070.582734961
2366,2890601.669678118
4114,33759797.74558013
4126,18871641.358684005
4162,14199365.105798254
4210,6143715.609704469
4236,2319682.1019593628
4348,3424176.434374763
4473,199055.12259149765
2,3, 1, 3, 0,17, 0.00,60.00,Saturday
11,281740618.305559
47,117625082.24073221
71,64683482.24073224
346,52941599.9999999
993,114247259.99999997
1017,114247259.99999997
1497,34341016.15295443
1533,29024875.168857416
1557,29024875.168857416
2228,8505615.718028754
2366,2956412.0240117467
4114,33313466.803370686
4126,18965619.077905455
4162,14199365.105798254
4210,7111724.689217674
4236,2359728.9600852665
4348,738415.8155383102
4473,199053.0386714202
2,3, 1, 3, 0,18, 0.00,60.00,Saturday
11,275420368.26842787
47,111937382.99999996
71,64017782.99999998
346,47919599.99999992
993,113145659.99999997
1017,113145659.99999997
1497,47220062.13440639
1533,28597212.921243654
1557,28597212.921243654
2228,8949461.61001873
2366,2876113.406938807
4114,32373900.300668494
4126,18174535.19487024
4162,14199365.105798254
4210,8815363.705846776
4236,15746735.806223927
4348,0.0
4473,198599.65189401405
2,3, 1, 3, 0,19, 0.00,60.00,Saturday
11,302770745.0971736
47,128942549.99999987
71,38125349.999999988
346,90817199.99999984
993,125066699.99999988
1017,125066699.99999988
1497,100849871.11111643
1533,28597212.921243654
1557,28597212.921243654
2228,8203866.648300728
2366,2547404.2503479875
4114,30729131.295043835
4126,16529766.189245584
4162,14199365.105798254
4210,9630024.423398652
4236,69705253.93952479
4348,0.0
4473,198472.73043055309
2,3, 1, 3, 0,20, 0.00,60.00,Saturday
11,316914694.09947547
47,142745273.9999998
71,23329673.999999994
346,119415599.9999998
993,138176819.9999998
1017,138176819.9999998
1497,93834849.67835349
1533,0.0
1557,0.0
2228,7015246.673985055
2366,2425420.3301032858
4114,28699282.789381844
4126,14487417.026481722
4162,14199365.105798254
4210,16365.983408404805
4236,91409429.34825021
4348,62145.08901380588
4473,199559.56368668559
2,3, 1, 3, 0,21, 0.00,60.00,Saturday
11,344976384.3528316
47,157044473.99999977
71,23329673.999999994
346,133714799.99999979
993,152476019.99999977
1017,152476019.99999977
1497,128903270.15200085
1533,0.0
1557,0.0
2228,5823554.789202411
2366,2044172.3551151127
4114,28807435.68968359
4126,14487417.026481722
4162,14199365.105798254
4210,22712.90724110376
4236,126859097.79688573
4348,599725.2125462897
4473,202461.75415857355
2,3, 1, 3, 0,22, 0.00,60.00,Saturday
11,283526518.6304405
47,127949597.9999998
71,8533997.999999999