Program Version,EnergyPlus, Version 9.0.1-bb7ca4f0da, YMD=2020.01.08 20:43
1,5,Environment Title[],Latitude[deg],Longitude[deg],Time Zone[],Elevation[m]
2,8,Day of Simulation[],Month[],Day of Month[],DST Indicator[1=yes 0=no],Hour[],StartMinute[],EndMinute[],DayType
3,5,Cumulative Day of Simulation[],Month[],Day of Month[],DST Indicator[1=yes 0=no],DayType  ! When Daily Report Variables Requested
4,2,Cumulative Days of Simulation[],Month[]  ! When Monthly Report Variables Requested
5,1,Cumulative Days of Simulation[] ! When Run Period Report Variables Requested
6,1,Calendar Year of Simulation[] ! When Annual Report Variables Requested
7,1,Environment,Site Outdoor Air Drybulb Temperature [C] !TimeStep
4438,1,BASE BLR,Boiler Heating Rate [W] !Hourly
End of Data Dictionary
1,CA_SACRAMENTO-EXECUTIVE- ANN CLG .4% CONDNS DB=>MWB,  38.51,-121.50,  -8.00,   7.00
2,1, 7,21, 0, 1, 0.00,15.00,SummerDesignDay
7,22.936999999999999
2,1, 7,21, 0, 1,15.00,30.00,SummerDesignDay
7,22.669999999999996
2,1, 7,21, 0, 1,30.00,45.00,SummerDesignDay
7,22.403
2,1, 7,21, 0, 1,45.00,60.00,SummerDesignDay
7,22.135999999999997
2,1, 7,21, 0, 1, 0.00,60.00,SummerDesignDay
4438,0.0
2,1, 7,21, 0, 2, 0.00,15.00,SummerDesignDay
7,21.958
2,1, 7,21, 0, 2,15.00,30.00,SummerDesignDay
7,21.779999999999999
2,1, 7,21, 0, 2,30.00,45.00,SummerDesignDay
7,21.601999999999998
2,1, 7,21, 0, 2,45.00,60.00,SummerDesignDay
7,21.423999999999997
2,1, 7,21, 0, 2, 0.00,60.00,SummerDesignDay
4438,0.0
2,1, 7,21, 0, 3, 0.00,15.00,SummerDesignDay
7,21.290499999999999
2,1, 7,21, 0, 3,15.00,30.00,SummerDesignDay
7,21.156999999999998
2,1, 7,21, 0, 3,30.00,45.00,SummerDesignDay
7,21.0235
2,1, 7,21, 0, 3,45.00,60.00,SummerDesignDay
7,20.889999999999998
2,1, 7,21, 0, 3, 0.00,60.00,SummerDesignDay
4438,0.0
2,1, 7,21, 0, 4, 0.00,15.00,SummerDesignDay
7,20.7565
2,1, 7,21, 0, 4,15.00,30.00,SummerDesignDay
7,20.622999999999999
2,1, 7,21, 0, 4,30.00,45.00,SummerDesignDay
7,20.4895
2,1, 7,21, 0, 4,45.00,60.00,SummerDesignDay
7,20.355999999999999
2,1, 7,21, 0, 4, 0.00,60.00,SummerDesignDay
4438,0.0
2,1, 7,21, 0, 5, 0.00,15.00,SummerDesignDay
7,20.266999999999997
2,1, 7,21, 0, 5,15.00,30.00,SummerDesignDay
7,20.177999999999999
2,1, 7,21, 0, 5,30.00,45.00,SummerDesignDay
7,20.088999999999996
2,1, 7,21, 0, 5,45.00,60.00,SummerDesignDay
7,19.999999999999998
2,1, 7,21, 0, 5, 0.00,60.00,SummerDesignDay
4438,0.0
2,1, 7,21, 0, 6, 0.00,15.00,SummerDesignDay
7,20.088999999999996
2,1, 7,21, 0, 6,15.00,30.00,SummerDesignDay
7,20.177999999999999
2,1, 7,21, 0, 6,30.00,45.00,SummerDesignDay
7,20.266999999999997
2,1, 7,21, 0, 6,45.00,60.00,SummerDesignDay
7,20.355999999999999
2,1, 7,21, 0, 6, 0.00,60.00,SummerDesignDay
4438,0.0
2,1, 7,21, 0, 7, 0.00,15.00,SummerDesignDay
7,20.667499999999998
2,1, 7,21, 0, 7,15.00,30.00,SummerDesignDay
7,20.978999999999997
2,1, 7,21, 0, 7,30.00,45.00,SummerDesignDay
7,21.290499999999999
2,1, 7,21, 0, 7,45.00,60.00,SummerDesignDay
7,21.601999999999998
2,1, 7,21, 0, 7, 0.00,60.00,SummerDesignDay
4438,0.0
2,1, 7,21, 0, 8, 0.00,15.00,SummerDesignDay
7,22.3585
2,1, 7,21, 0, 8,15.00,30.00,SummerDesignDay
7,23.114999999999996
2,1, 7,21, 0, 8,30.00,45.00,SummerDesignDay
7,23.871499999999999
2,1, 7,21, 0, 8,45.00,60.00,SummerDesignDay
7,24.627999999999998
2,1, 7,21, 0, 8, 0.00,60.00,SummerDesignDay
4438,0.0
2,1, 7,21, 0, 9, 0.00,15.00,SummerDesignDay
7,25.473499999999999
2,1, 7,21, 0, 9,15.00,30.00,SummerDesignDay
7,26.318999999999997
2,1, 7,21, 0, 9,30.00,45.00,SummerDesignDay
7,27.164499999999998
2,1, 7,21, 0, 9,45.00,60.00,SummerDesignDay
7,28.009999999999999
2,1, 7,21, 0, 9, 0.00,60.00,SummerDesignDay
4438,0.0
2,1, 7,21, 0,10, 0.00,15.00,SummerDesignDay
7,28.766499999999995
2,1, 7,21, 0,10,15.00,30.00,SummerDesignDay
7,29.522999999999997
2,1, 7,21, 0,10,30.00,45.00,SummerDesignDay
7,30.279499999999996
2,1, 7,21, 0,10,45.00,60.00,SummerDesignDay
7,31.035999999999999
2,1, 7,21, 0,10, 0.00,60.00,SummerDesignDay
4438,0.0
2,1, 7,21, 0,11, 0.00,15.00,SummerDesignDay
7,31.7035
2,1, 7,21, 0,11,15.00,30.00,SummerDesignDay
7,32.370999999999998
2,1, 7,21, 0,11,30.00,45.00,SummerDesignDay
7,33.0385
2,1, 7,21, 0,11,45.00,60.00,SummerDesignDay
7,33.705999999999999
2,1, 7,21, 0,11, 0.00,60.00,SummerDesignDay
4438,0.0
2,1, 7,21, 0,12, 0.00,15.00,SummerDesignDay
7,34.150999999999999
2,1, 7,21, 0,12,15.00,30.00,SummerDesignDay
7,34.596
2,1, 7,21, 0,12,30.00,45.00,SummerDesignDay
7,35.041
2,1, 7,21, 0,12,45.00,60.00,SummerDesignDay
7,35.486
2,1, 7,21, 0,12, 0.00,60.00,SummerDesignDay
4438,0.0
2,1, 7,21, 0,13, 0.00,15.00,SummerDesignDay
7,35.842
2,1, 7,21, 0,13,15.00,30.00,SummerDesignDay
7,36.198
2,1, 7,21, 0,13,30.00,45.00,SummerDesignDay
7,36.553999999999998
2,1, 7,21, 0,13,45.00,60.00,SummerDesignDay
7,36.91
2,1, 7,21, 0,13, 0.00,60.00,SummerDesignDay
4438,0.0
2,1, 7,21, 0,14, 0.00,15.00,SummerDesignDay
7,37.1325
2,1, 7,21, 0,14,15.00,30.00,SummerDesignDay
7,37.355
2,1, 7,21, 0,14,30.00,45.00,SummerDesignDay
7,37.5775
2,1, 7,21, 0,14,45.00,60.00,SummerDesignDay
7,37.8
2,1, 7,21, 0,14, 0.00,60.00,SummerDesignDay
4438,0.0
2,1, 7,21, 0,15, 0.00,15.00,SummerDesignDay
7,37.8
2,1, 7,21, 0,15,15.00,30.00,SummerDesignDay
7,37.8
2,1, 7,21, 0,15,30.00,45.00,SummerDesignDay
7,37.8
2,1, 7,21, 0,15,45.00,60.00,SummerDesignDay
7,37.8
2,1, 7,21, 0,15, 0.00,60.00,SummerDesignDay
4438,0.0
2,1, 7,21, 0,16, 0.00,15.00,SummerDesignDay
7,37.532999999999997
2,1, 7,21, 0,16,15.00,30.00,SummerDesignDay
7,37.266
2,1, 7,21, 0,16,30.00,45.00,SummerDesignDay
7,36.998999999999998
2,1, 7,21, 0,16,45.00,60.00,SummerDesignDay
7,36.732
2,1, 7,21, 0,16, 0.00,60.00,SummerDesignDay
4438,0.0
2,1, 7,21, 0,17, 0.00,15.00,SummerDesignDay
7,36.376
2,1, 7,21, 0,17,15.00,30.00,SummerDesignDay
7,36.019999999999999
2,1, 7,21, 0,17,30.00,45.00,SummerDesignDay
7,35.663999999999997
2,1, 7,21, 0,17,45.00,60.00,SummerDesignDay
7,35.308
2,1, 7,21, 0,17, 0.00,60.00,SummerDesignDay
4438,0.0
2,1, 7,21, 0,18, 0.00,15.00,SummerDesignDay
7,34.863
2,1, 7,21, 0,18,15.00,30.00,SummerDesignDay
7,34.418
2,1, 7,21, 0,18,30.00,45.00,SummerDesignDay
7,33.973
2,1, 7,21, 0,18,45.00,60.00,SummerDesignDay
7,33.528
2,1, 7,21, 0,18, 0.00,60.00,SummerDesignDay
4438,0.0
2,1, 7,21, 0,19, 0.00,15.00,SummerDesignDay
7,32.860499999999998
2,1, 7,21, 0,19,15.00,30.00,SummerDesignDay
7,32.193
2,1, 7,21, 0,19,30.00,45.00,SummerDesignDay
7,31.525499999999999
2,1, 7,21, 0,19,45.00,60.00,SummerDesignDay
7,30.857999999999998
2,1, 7,21, 0,19, 0.00,60.00,SummerDesignDay
4438,0.0
2,1, 7,21, 0,20, 0.00,15.00,SummerDesignDay
7,30.368499999999999
2,1, 7,21, 0,20,15.00,30.00,SummerDesignDay
7,29.878999999999999
2,1, 7,21, 0,20,30.00,45.00,SummerDesignDay
7,29.389499999999999
2,1, 7,21, 0,20,45.00,60.00,SummerDesignDay
7,28.9
2,1, 7,21, 0,20, 0.00,60.00,SummerDesignDay
4438,0.0
2,1, 7,21, 0,21, 0.00,15.00,SummerDesignDay
7,28.499499999999999
2,1, 7,21, 0,21,15.00,30.00,SummerDesignDay
7,28.098999999999998
2,1, 7,21, 0,21,30.00,45.00,SummerDesignDay
7,27.698499999999997
2,1, 7,21, 0,21,45.00,60.00,SummerDesignDay
7,27.297999999999996
2,1, 7,21, 0,21, 0.00,60.00,SummerDesignDay
4438,0.0
2,1, 7,21, 0,22, 0.00,15.00,SummerDesignDay
7,26.897499999999995
2,1, 7,21, 0,22,15.00,30.00,SummerDesignDay
7,26.496999999999998
2,1, 7,21, 0,22,30.00,45.00,SummerDesignDay
7,26.0965
2,1, 7,21, 0,22,45.00,60.00,SummerDesignDay
7,25.695999999999999
2,1, 7,21, 0,22, 0.00,60.00,SummerDesignDay
4438,0.0
2,1, 7,21, 0,23, 0.00,15.00,SummerDesignDay
7,25.384499999999997
2,1, 7,21, 0,23,15.00,30.00,SummerDesignDay
7,25.072999999999995
2,1, 7,21, 0,23,30.00,45.00,SummerDesignDay
7,24.761499999999999
2,1, 7,21, 0,23,45.00,60.00,SummerDesignDay
7,24.449999999999997
2,1, 7,21, 0,23, 0.00,60.00,SummerDesignDay
4438,0.0
2,1, 7,21, 0,24, 0.00,15.00,SummerDesignDay
7,24.138499999999998
2,1, 7,21, 0,24,15.00,30.00,SummerDesignDay
7,23.826999999999999
2,1, 7,21, 0,24,30.00,45.00,SummerDesignDay
7,23.515499999999997
2,1, 7,21, 0,24,45.00,60.00,SummerDesignDay
7,23.203999999999998
2,1, 7,21, 0,24, 0.00,60.00,SummerDesignDay
4438,0.0
1,CA_SACRAMENTO-EXECUTIVE- ANN CLG .4% CONDNS DP=>MDB,  38.51,-121.50,  -8.00,   7.00
2,1, 7,21, 0, 1, 0.00,15.00,SummerDesignDay
7,13.737000000000002
2,1, 7,21, 0, 1,15.00,30.00,SummerDesignDay
7,13.47
2,1, 7,21, 0, 1,30.00,45.00,SummerDesignDay
7,13.203000000000002
2,1, 7,21, 0, 1,45.00,60.00,SummerDesignDay
7,12.936
2,1, 7,21, 0, 1, 0.00,60.00,SummerDesignDay
4438,0.0
2,1, 7,21, 0, 2, 0.00,15.00,SummerDesignDay
7,12.758000000000001
2,1, 7,21, 0, 2,15.00,30.00,SummerDesignDay
7,12.580000000000002
2,1, 7,21, 0, 2,30.00,45.00,SummerDesignDay
7,12.402000000000001
2,1, 7,21, 0, 2,45.00,60.00,SummerDesignDay
7,12.224
2,1, 7,21, 0, 2, 0.00,60.00,SummerDesignDay
4438,853.3825340526437
2,1, 7,21, 0, 3, 0.00,15.00,SummerDesignDay
7,12.090500000000003
2,1, 7,21, 0, 3,15.00,30.00,SummerDesignDay
7,11.957
2,1, 7,21, 0, 3,30.00,45.00,SummerDesignDay
7,11.823500000000003
2,1, 7,21, 0, 3,45.00,60.00,SummerDesignDay
7,11.690000000000002
2,1, 7,21, 0, 3, 0.00,60.00,SummerDesignDay
4438,3342.5563970739428
2,1, 7,21, 0, 4, 0.00,15.00,SummerDesignDay
7,11.556500000000004
2,1, 7,21, 0, 4,15.00,30.00,SummerDesignDay
7,11.423000000000002
2,1, 7,21, 0, 4,30.00,45.00,SummerDesignDay
7,11.289500000000004
2,1, 7,21, 0, 4,45.00,60.00,SummerDesignDay
7,11.156000000000003
2,1, 7,21, 0, 4, 0.00,60.00,SummerDesignDay
4438,5854.003272606938
2,1, 7,21, 0, 5, 0.00,15.00,SummerDesignDay
7,11.067
2,1, 7,21, 0, 5,15.00,30.00,SummerDesignDay
7,10.978000000000002
2,1, 7,21, 0, 5,30.00,45.00,SummerDesignDay
7,10.889
2,1, 7,21, 0, 5,45.00,60.00,SummerDesignDay
7,10.8
2,1, 7,21, 0, 5, 0.00,60.00,SummerDesignDay
4438,7860.386466721556
2,1, 7,21, 0, 6, 0.00,15.00,SummerDesignDay
7,10.889
2,1, 7,21, 0, 6,15.00,30.00,SummerDesignDay
7,10.978000000000002
2,1, 7,21, 0, 6,30.00,45.00,SummerDesignDay
7,11.067
2,1, 7,21, 0, 6,45.00,60.00,SummerDesignDay
7,11.156000000000003
2,1, 7,21, 0, 6, 0.00,60.00,SummerDesignDay
4438,5916.779904399496
2,1, 7,21, 0, 7, 0.00,15.00,SummerDesignDay
7,11.467500000000002
2,1, 7,21, 0, 7,15.00,30.00,SummerDesignDay
7,11.779
2,1, 7,21, 0, 7,30.00,45.00,SummerDesignDay
7,12.090500000000003
2,1, 7,21, 0, 7,45.00,60.00,SummerDesignDay
7,12.402000000000001
2,1, 7,21, 0, 7, 0.00,60.00,SummerDesignDay
4438,307.6849463410894
2,1, 7,21, 0, 8, 0.00,15.00,SummerDesignDay
7,13.158500000000002
2,1, 7,21, 0, 8,15.00,30.00,SummerDesignDay
7,13.915000000000001
2,1, 7,21, 0, 8,30.00,45.00,SummerDesignDay
7,14.671500000000002
2,1, 7,21, 0, 8,45.00,60.00,SummerDesignDay
7,15.428
2,1, 7,21, 0, 8, 0.00,60.00,SummerDesignDay
4438,0.0
2,1, 7,21, 0, 9, 0.00,15.00,SummerDesignDay
7,16.273500000000003
2,1, 7,21, 0, 9,15.00,30.00,SummerDesignDay
7,17.119
2,1, 7,21, 0, 9,30.00,45.00,SummerDesignDay
7,17.9645
2,1, 7,21, 0, 9,45.00,60.00,SummerDesignDay
7,18.810000000000004
2,1, 7,21, 0, 9, 0.00,60.00,SummerDesignDay
4438,0.0
2,1, 7,21, 0,10, 0.00,15.00,SummerDesignDay
7,19.566499999999999
2,1, 7,21, 0,10,15.00,30.00,SummerDesignDay
7,20.323
2,1, 7,21, 0,10,30.00,45.00,SummerDesignDay
7,21.0795
2,1, 7,21, 0,10,45.00,60.00,SummerDesignDay
7,21.836000000000003
2,1, 7,21, 0,10, 0.00,60.00,SummerDesignDay
4438,0.0
2,1, 7,21, 0,11, 0.00,15.00,SummerDesignDay
7,22.503500000000004
2,1, 7,21, 0,11,15.00,30.00,SummerDesignDay
7,23.171
2,1, 7,21, 0,11,30.00,45.00,SummerDesignDay
7,23.8385
2,1, 7,21, 0,11,45.00,60.00,SummerDesignDay
7,24.506
2,1, 7,21, 0,11, 0.00,60.00,SummerDesignDay
4438,0.0
2,1, 7,21, 0,12, 0.00,15.00,SummerDesignDay
7,24.951
2,1, 7,21, 0,12,15.00,30.00,SummerDesignDay
7,25.396
2,1, 7,21, 0,12,30.00,45.00,SummerDesignDay
7,25.841
2,1, 7,21, 0,12,45.00,60.00,SummerDesignDay
7,26.286
2,1, 7,21, 0,12, 0.00,60.00,SummerDesignDay
4438,0.0
2,1, 7,21, 0,13, 0.00,15.00,SummerDesignDay
7,26.642000000000004
2,1, 7,21, 0,13,15.00,30.00,SummerDesignDay
7,26.998
2,1, 7,21, 0,13,30.00,45.00,SummerDesignDay
7,27.354000000000004
2,1, 7,21, 0,13,45.00,60.00,SummerDesignDay
7,27.71
2,1, 7,21, 0,13, 0.00,60.00,SummerDesignDay
4438,0.0
2,1, 7,21, 0,14, 0.00,15.00,SummerDesignDay
7,27.9325
2,1, 7,21, 0,14,15.00,30.00,SummerDesignDay
7,28.155
2,1, 7,21, 0,14,30.00,45.00,SummerDesignDay
7,28.3775
2,1, 7,21, 0,14,45.00,60.00,SummerDesignDay
7,28.6
2,1, 7,21, 0,14, 0.00,60.00,SummerDesignDay
4438,0.0
2,1, 7,21, 0,15, 0.00,15.00,SummerDesignDay
7,28.6
2,1, 7,21, 0,15,15.00,30.00,SummerDesignDay
7,28.6
2,1, 7,21, 0,15,30.00,45.00,SummerDesignDay
7,28.6
2,1, 7,21, 0,15,45.00,60.00,SummerDesignDay
7,28.6
2,1, 7,21, 0,15, 0.00,60.00,SummerDesignDay
4438,0.0
2,1, 7,21, 0,16, 0.00,15.00,SummerDesignDay
7,28.333000000000003
2,1, 7,21, 0,16,15.00,30.00,SummerDesignDay
7,28.066000000000004
2,1, 7,21, 0,16,30.00,45.00,SummerDesignDay
7,27.799000000000004
2,1, 7,21, 0,16,45.00,60.00,SummerDesignDay
7,27.532
2,1, 7,21, 0,16, 0.00,60.00,SummerDesignDay
4438,0.0
2,1, 7,21, 0,17, 0.00,15.00,SummerDesignDay
7,27.176000000000003
2,1, 7,21, 0,17,15.00,30.00,SummerDesignDay
7,26.82
2,1, 7,21, 0,17,30.00,45.00,SummerDesignDay
7,26.464000000000003
2,1, 7,21, 0,17,45.00,60.00,SummerDesignDay
7,26.108
2,1, 7,21, 0,17, 0.00,60.00,SummerDesignDay
4438,9.251054636661184
2,1, 7,21, 0,18, 0.00,15.00,SummerDesignDay
7,25.663
2,1, 7,21, 0,18,15.00,30.00,SummerDesignDay
7,25.218
2,1, 7,21, 0,18,30.00,45.00,SummerDesignDay
7,24.773000000000005
2,1, 7,21, 0,18,45.00,60.00,SummerDesignDay
7,24.328000000000004
2,1, 7,21, 0,18, 0.00,60.00,SummerDesignDay
4438,40.50483655788475
2,1, 7,21, 0,19, 0.00,15.00,SummerDesignDay
7,23.660500000000004
2,1, 7,21, 0,19,15.00,30.00,SummerDesignDay
7,22.993000000000003
2,1, 7,21, 0,19,30.00,45.00,SummerDesignDay
7,22.3255
2,1, 7,21, 0,19,45.00,60.00,SummerDesignDay
7,21.658
2,1, 7,21, 0,19, 0.00,60.00,SummerDesignDay
4438,81.78725460465388
2,1, 7,21, 0,20, 0.00,15.00,SummerDesignDay
7,21.1685
2,1, 7,21, 0,20,15.00,30.00,SummerDesignDay
7,20.679000000000003
2,1, 7,21, 0,20,30.00,45.00,SummerDesignDay
7,20.189500000000004
2,1, 7,21, 0,20,45.00,60.00,SummerDesignDay
7,19.700000000000004
2,1, 7,21, 0,20, 0.00,60.00,SummerDesignDay
4438,138.25829884735038
2,1, 7,21, 0,21, 0.00,15.00,SummerDesignDay
7,19.299500000000003
2,1, 7,21, 0,21,15.00,30.00,SummerDesignDay
7,18.899
2,1, 7,21, 0,21,30.00,45.00,SummerDesignDay
7,18.4985
2,1, 7,21, 0,21,45.00,60.00,SummerDesignDay
7,18.098
2,1, 7,21, 0,21, 0.00,60.00,SummerDesignDay
4438,193.0158083963193
2,1, 7,21, 0,22, 0.00,15.00,SummerDesignDay
7,17.697499999999999
2,1, 7,21, 0,22,15.00,30.00,SummerDesignDay
7,17.297
2,1, 7,21, 0,22,30.00,45.00,SummerDesignDay
7,16.896500000000004
2,1, 7,21, 0,22,45.00,60.00,SummerDesignDay
7,16.496000000000003
2,1, 7,21, 0,22, 0.00,60.00,SummerDesignDay
4438,0.0
2,1, 7,21, 0,23, 0.00,15.00,SummerDesignDay
7,16.1845
2,1, 7,21, 0,23,15.00,30.00,SummerDesignDay
7,15.873
2,1, 7,21, 0,23,30.00,45.00,SummerDesignDay
7,15.5615
2,1, 7,21, 0,23,45.00,60.00,SummerDesignDay
7,15.25
2,1, 7,21, 0,23, 0.00,60.00,SummerDesignDay
4438,0.0
2,1, 7,21, 0,24, 0.00,15.00,SummerDesignDay
7,14.938500000000002
2,1, 7,21, 0,24,15.00,30.00,SummerDesignDay
7,14.627000000000003
2,1, 7,21, 0,24,30.00,45.00,SummerDesignDay
7,14.315500000000002
2,1, 7,21, 0,24,45.00,60.00,SummerDesignDay
7,14.004000000000002
2,1, 7,21, 0,24, 0.00,60.00,SummerDesignDay
4438,0.0
1,CA_SACRAMENTO-EXECUTIVE- ANN CLG .4% CONDNS WB=>MDB,  38.51,-121.50,  -8.00,   7.00
2,1, 7,21, 0, 1, 0.00,15.00,SummerDesignDay
7,20.436999999999999
2,1, 7,21, 0, 1,15.00,30.00,SummerDesignDay
7,20.169999999999996
2,1, 7,21, 0, 1,30.00,45.00,SummerDesignDay
7,19.903
2,1, 7,21, 0, 1,45.00,60.00,SummerDesignDay
7,19.635999999999997
2,1, 7,21, 0, 1, 0.00,60.00,SummerDesignDay
4438,0.0
2,1, 7,21, 0, 2, 0.00,15.00,SummerDesignDay
7,19.458
2,1, 7,21, 0, 2,15.00,30.00,SummerDesignDay
7,19.279999999999999
2,1, 7,21, 0, 2,30.00,45.00,SummerDesignDay
7,19.101999999999998
2,1, 7,21, 0, 2,45.00,60.00,SummerDesignDay
7,18.923999999999997
2,1, 7,21, 0, 2, 0.00,60.00,SummerDesignDay
4438,0.0
2,1, 7,21, 0, 3, 0.00,15.00,SummerDesignDay
7,18.790499999999999
2,1, 7,21, 0, 3,15.00,30.00,SummerDesignDay
7,18.656999999999998
2,1, 7,21, 0, 3,30.00,45.00,SummerDesignDay
7,18.5235
2,1, 7,21, 0, 3,45.00,60.00,SummerDesignDay
7,18.389999999999998
2,1, 7,21, 0, 3, 0.00,60.00,SummerDesignDay
4438,0.0
2,1, 7,21, 0, 4, 0.00,15.00,SummerDesignDay
7,18.2565
2,1, 7,21, 0, 4,15.00,30.00,SummerDesignDay
7,18.122999999999999
2,1, 7,21, 0, 4,30.00,45.00,SummerDesignDay
7,17.9895
2,1, 7,21, 0, 4,45.00,60.00,SummerDesignDay
7,17.855999999999999
2,1, 7,21, 0, 4, 0.00,60.00,SummerDesignDay
4438,0.0
2,1, 7,21, 0, 5, 0.00,15.00,SummerDesignDay
7,17.766999999999997
2,1, 7,21, 0, 5,15.00,30.00,SummerDesignDay
7,17.677999999999999
2,1, 7,21, 0, 5,30.00,45.00,SummerDesignDay
7,17.588999999999996
2,1, 7,21, 0, 5,45.00,60.00,SummerDesignDay
7,17.499999999999998
2,1, 7,21, 0, 5, 0.00,60.00,SummerDesignDay
4438,0.0
2,1, 7,21, 0, 6, 0.00,15.00,SummerDesignDay
7,17.588999999999996
2,1, 7,21, 0, 6,15.00,30.00,SummerDesignDay
7,17.677999999999999
2,1, 7,21, 0, 6,30.00,45.00,SummerDesignDay
7,17.766999999999997
2,1, 7,21, 0, 6,45.00,60.00,SummerDesignDay
7,17.855999999999999
2,1, 7,21, 0, 6, 0.00,60.00,SummerDesignDay
4438,0.0
2,1, 7,21, 0, 7, 0.00,15.00,SummerDesignDay
7,18.167499999999998
2,1, 7,21, 0, 7,15.00,30.00,SummerDesignDay
7,18.478999999999997
2,1, 7,21, 0, 7,30.00,45.00,SummerDesignDay
7,18.790499999999999
2,1, 7,21, 0, 7,45.00,60.00,SummerDesignDay
7,19.101999999999998
2,1, 7,21, 0, 7, 0.00,60.00,SummerDesignDay
4438,0.0
2,1, 7,21, 0, 8, 0.00,15.00,SummerDesignDay
7,19.8585
2,1, 7,21, 0, 8,15.00,30.00,SummerDesignDay
7,20.614999999999996
2,1, 7,21, 0, 8,30.00,45.00,SummerDesignDay
7,21.371499999999999
2,1, 7,21, 0, 8,45.00,60.00,SummerDesignDay
7,22.127999999999998
2,1, 7,21, 0, 8, 0.00,60.00,SummerDesignDay
4438,0.0
2,1, 7,21, 0, 9, 0.00,15.00,SummerDesignDay
7,22.973499999999999
2,1, 7,21, 0, 9,15.00,30.00,SummerDesignDay
7,23.818999999999997
2,1, 7,21, 0, 9,30.00,45.00,SummerDesignDay
7,24.664499999999998
2,1, 7,21, 0, 9,45.00,60.00,SummerDesignDay
7,25.509999999999999
2,1, 7,21, 0, 9, 0.00,60.00,SummerDesignDay
4438,0.0
2,1, 7,21, 0,10, 0.00,15.00,SummerDesignDay
7,26.266499999999995
2,1, 7,21, 0,10,15.00,30.00,SummerDesignDay
7,27.022999999999997
2,1, 7,21, 0,10,30.00,45.00,SummerDesignDay
7,27.779499999999996
2,1, 7,21, 0,10,45.00,60.00,SummerDesignDay
7,28.535999999999999
2,1, 7,21, 0,10, 0.00,60.00,SummerDesignDay
4438,0.0
2,1, 7,21, 0,11, 0.00,15.00,SummerDesignDay
7,29.2035
2,1, 7,21, 0,11,15.00,30.00,SummerDesignDay
7,29.870999999999996
2,1, 7,21, 0,11,30.00,45.00,SummerDesignDay
7,30.538499999999997
2,1, 7,21, 0,11,45.00,60.00,SummerDesignDay
7,31.205999999999997
2,1, 7,21, 0,11, 0.00,60.00,SummerDesignDay
4438,0.0
2,1, 7,21, 0,12, 0.00,15.00,SummerDesignDay
7,31.650999999999998
2,1, 7,21, 0,12,15.00,30.00,SummerDesignDay
7,32.096
2,1, 7,21, 0,12,30.00,45.00,SummerDesignDay
7,32.541
2,1, 7,21, 0,12,45.00,60.00,SummerDesignDay
7,32.986
2,1, 7,21, 0,12, 0.00,60.00,SummerDesignDay
4438,0.0
2,1, 7,21, 0,13, 0.00,15.00,SummerDesignDay
7,33.342
2,1, 7,21, 0,13,15.00,30.00,SummerDesignDay
7,33.698
2,1, 7,21, 0,13,30.00,45.00,SummerDesignDay
7,34.053999999999998
2,1, 7,21, 0,13,45.00,60.00,SummerDesignDay
7,34.41
2,1, 7,21, 0,13, 0.00,60.00,SummerDesignDay
4438,0.0
2,1, 7,21, 0,14, 0.00,15.00,SummerDesignDay
7,34.6325
2,1, 7,21, 0,14,15.00,30.00,SummerDesignDay
7,34.855
2,1, 7,21, 0,14,30.00,45.00,SummerDesignDay
7,35.0775
2,1, 7,21, 0,14,45.00,60.00,SummerDesignDay
7,35.3
2,1, 7,21, 0,14, 0.00,60.00,SummerDesignDay
4438,0.0
2,1, 7,21, 0,15, 0.00,15.00,SummerDesignDay
7,35.3
2,1, 7,21, 0,15,15.00,30.00,SummerDesignDay
7,35.3
2,1, 7,21, 0,15,30.00,45.00,SummerDesignDay
7,35.3
2,1, 7,21, 0,15,45.00,60.00,SummerDesignDay
7,35.3
2,1, 7,21, 0,15, 0.00,60.00,SummerDesignDay
4438,0.0
2,1, 7,21, 0,16, 0.00,15.00,SummerDesignDay
7,35.032999999999997
2,1, 7,21, 0,16,15.00,30.00,SummerDesignDay
7,34.766
2,1, 7,21, 0,16,30.00,45.00,SummerDesignDay
7,34.498999999999998
2,1, 7,21, 0,16,45.00,60.00,SummerDesignDay
7,34.232
2,1, 7,21, 0,16, 0.00,60.00,SummerDesignDay
4438,0.0
2,1, 7,21, 0,17, 0.00,15.00,SummerDesignDay
7,33.876
2,1, 7,21, 0,17,15.00,30.00,SummerDesignDay
7,33.519999999999999
2,1, 7,21, 0,17,30.00,45.00,SummerDesignDay
7,33.163999999999997
2,1, 7,21, 0,17,45.00,60.00,SummerDesignDay
7,32.808
2,1, 7,21, 0,17, 0.00,60.00,SummerDesignDay
4438,0.0
2,1, 7,21, 0,18, 0.00,15.00,SummerDesignDay
7,32.363
2,1, 7,21, 0,18,15.00,30.00,SummerDesignDay
7,31.917999999999997
2,1, 7,21, 0,18,30.00,45.00,SummerDesignDay
7,31.473
2,1, 7,21, 0,18,45.00,60.00,SummerDesignDay
7,31.028
2,1, 7,21, 0,18, 0.00,60.00,SummerDesignDay
4438,0.0
2,1, 7,21, 0,19, 0.00,15.00,SummerDesignDay
7,30.3605
2,1, 7,21, 0,19,15.00,30.00,SummerDesignDay
7,29.692999999999999
2,1, 7,21, 0,19,30.00,45.00,SummerDesignDay
7,29.025499999999999
2,1, 7,21, 0,19,45.00,60.00,SummerDesignDay
7,28.357999999999998
2,1, 7,21, 0,19, 0.00,60.00,SummerDesignDay
4438,0.0
2,1, 7,21, 0,20, 0.00,15.00,SummerDesignDay
7,27.868499999999999
2,1, 7,21, 0,20,15.00,30.00,SummerDesignDay
7,27.378999999999999
2,1, 7,21, 0,20,30.00,45.00,SummerDesignDay
7,26.889499999999999
2,1, 7,21, 0,20,45.00,60.00,SummerDesignDay
7,26.4
2,1, 7,21, 0,20, 0.00,60.00,SummerDesignDay
4438,0.0
2,1, 7,21, 0,21, 0.00,15.00,SummerDesignDay
7,25.999499999999999
2,1, 7,21, 0,21,15.00,30.00,SummerDesignDay
7,25.598999999999998
2,1, 7,21, 0,21,30.00,45.00,SummerDesignDay
7,25.198499999999997
2,1, 7,21, 0,21,45.00,60.00,SummerDesignDay
7,24.797999999999996
2,1, 7,21, 0,21, 0.00,60.00,SummerDesignDay
4438,0.0
2,1, 7,21, 0,22, 0.00,15.00,SummerDesignDay
7,24.397499999999995
2,1, 7,21, 0,22,15.00,30.00,SummerDesignDay
7,23.996999999999998
2,1, 7,21, 0,22,30.00,45.00,SummerDesignDay
7,23.5965
2,1, 7,21, 0,22,45.00,60.00,SummerDesignDay
7,23.195999999999999
2,1, 7,21, 0,22, 0.00,60.00,SummerDesignDay
4438,0.0
2,1, 7,21, 0,23, 0.00,15.00,SummerDesignDay
7,22.884499999999997
2,1, 7,21, 0,23,15.00,30.00,SummerDesignDay
7,22.572999999999995
2,1, 7,21, 0,23,30.00,45.00,SummerDesignDay
7,22.261499999999999
2,1, 7,21, 0,23,45.00,60.00,SummerDesignDay
7,21.949999999999997
2,1, 7,21, 0,23, 0.00,60.00,SummerDesignDay
4438,0.0
2,1, 7,21, 0,24, 0.00,15.00,SummerDesignDay
7,21.638499999999998
2,1, 7,21, 0,24,15.00,30.00,SummerDesignDay
7,21.326999999999999
2,1, 7,21, 0,24,30.00,45.00,SummerDesignDay
7,21.015499999999997
2,1, 7,21, 0,24,45.00,60.00,SummerDesignDay
7,20.703999999999998
2,1, 7,21, 0,24, 0.00,60.00,SummerDesignDay
4438,0.0
1,CA_SACRAMENTO-EXECUTIVE- ANN HTG 99.6% CONDNS DB,  38.51,-121.50,  -8.00,   7.00
2,1,12,21, 0, 1, 0.00,15.00,WinterDesignDay
7,-0.6
2,1,12,21, 0, 1,15.00,30.00,WinterDesignDay
7,-0.6
2,1,12,21, 0, 1,30.00,45.00,WinterDesignDay
7,-0.6
2,1,12,21, 0, 1,45.00,60.00,WinterDesignDay
7,-0.6
2,1,12,21, 0, 1, 0.00,60.00,WinterDesignDay
4438,70805.46607367222
2,1,12,21, 0, 2, 0.00,15.00,WinterDesignDay
7,-0.6
2,1,12,21, 0, 2,15.00,30.00,WinterDesignDay
7,-0.6
2,1,12,21, 0, 2,30.00,45.00,WinterDesignDay
7,-0.6
2,1,12,21, 0, 2,45.00,60.00,WinterDesignDay
7,-0.6
2,1,12,21, 0, 2, 0.00,60.00,WinterDesignDay
4438,73183.21968524563
2,1,12,21, 0, 3, 0.00,15.00,WinterDesignDay
7,-0.6
2,1,12,21, 0, 3,15.00,30.00,WinterDesignDay
7,-0.6
2,1,12,21, 0, 3,30.00,45.00,WinterDesignDay
7,-0.6
2,1,12,21, 0, 3,45.00,60.00,WinterDesignDay
7,-0.6
2,1,12,21, 0, 3, 0.00,60.00,WinterDesignDay
4438,76254.60063381403
2,1,12,21, 0, 4, 0.00,15.00,WinterDesignDay
7,-0.6
2,1,12,21, 0, 4,15.00,30.00,WinterDesignDay
7,-0.6
2,1,12,21, 0, 4,30.00,45.00,WinterDesignDay
7,-0.6
2,1,12,21, 0, 4,45.00,60.00,WinterDesignDay
7,-0.6
2,1,12,21, 0, 4, 0.00,60.00,WinterDesignDay
4438,80552.65191810142
2,1,12,21, 0, 5, 0.00,15.00,WinterDesignDay
7,-0.6
2,1,12,21, 0, 5,15.00,30.00,WinterDesignDay
7,-0.6
2,1,12,21, 0, 5,30.00,45.00,WinterDesignDay
7,-0.6
2,1,12,21, 0, 5,45.00,60.00,WinterDesignDay
7,-0.6
2,1,12,21, 0, 5, 0.00,60.00,WinterDesignDay
4438,83641.81569242617
2,1,12,21, 0, 6, 0.00,15.00,WinterDesignDay
7,-0.6
2,1,12,21, 0, 6,15.00,30.00,WinterDesignDay
7,-0.6
2,1,12,21, 0, 6,30.00,45.00,WinterDesignDay
7,-0.6
2,1,12,21, 0, 6,45.00,60.00,WinterDesignDay
7,-0.6
2,1,12,21, 0, 6, 0.00,60.00,WinterDesignDay
4438,128431.8378400451
2,1,12,21, 0, 7, 0.00,15.00,WinterDesignDay
7,-0.6
2,1,12,21, 0, 7,15.00,30.00,WinterDesignDay
7,-0.6
2,1,12,21, 0, 7,30.00,45.00,WinterDesignDay
7,-0.6
2,1,12,21, 0, 7,45.00,60.00,WinterDesignDay
7,-0.6
2,1,12,21, 0, 7, 0.00,60.00,WinterDesignDay
4438,184421.49883086756
2,1,12,21, 0, 8, 0.00,15.00,WinterDesignDay
7,-0.6
2,1,12,21, 0, 8,15.00,30.00,WinterDesignDay
7,-0.6
2,1,12,21, 0, 8,30.00,45.00,WinterDesignDay
7,-0.6
2,1,12,21, 0, 8,45.00,60.00,WinterDesignDay
7,-0.6
2,1,12,21, 0, 8, 0.00,60.00,WinterDesignDay
4438,158406.27159917513
2,1,12,21, 0, 9, 0.00,15.00,WinterDesignDay
7,-0.6
2,1,12,21, 0, 9,15.00,30.00,WinterDesignDay
7,-0.6
2,1,12,21, 0, 9,30.00,45.00,WinterDesignDay
7,-0.6
2,1,12,21, 0, 9,45.00,60.00,WinterDesignDay
7,-0.6
2,1,12,21, 0, 9, 0.00,60.00,WinterDesignDay
4438,143841.32485520328
2,1,12,21, 0,10, 0.00,15.00,WinterDesignDay
7,-0.6
2,1,12,21, 0,10,15.00,30.00,WinterDesignDay
7,-0.6
2,1,12,21, 0,10,30.00,45.00,WinterDesignDay
7,-0.6
2,1,12,21, 0,10,45.00,60.00,WinterDesignDay
7,-0.6
2,1,12,21, 0,10, 0.00,60.00,WinterDesignDay
4438,136798.88931597508
2,1,12,21, 0,11, 0.00,15.00,WinterDesignDay
7,-0.6
2,1,12,21, 0,11,15.00,30.00,WinterDesignDay
7,-0.6
2,1,12,21, 0,11,30.00,45.00,WinterDesignDay
7,-0.6
2,1,12,21, 0,11,45.00,60.00,WinterDesignDay
7,-0.6
2,1,12,21, 0,11, 0.00,60.00,WinterDesignDay
4438,132813.25120999985
2,1,12,21, 0,12, 0.00,15.00,WinterDesignDay
7,-0.6
2,1,12,21, 0,12,15.00,30.00,WinterDesignDay
7,-0.6
2,1,12,21, 0,12,30.00,45.00,WinterDesignDay
7,-0.6
2,1,12,21, 0,12,45.00,60.00,WinterDesignDay
7,-0.6
2,1,12,21, 0,12, 0.00,60.00,WinterDesignDay
4438,130400.31572308182
2,1,12,21, 0,13, 0.00,15.00,WinterDesignDay
7,-0.6
2,1,12,21, 0,13,15.00,30.00,WinterDesignDay
7,-0.6
2,1,12,21, 0,13,30.00,45.00,WinterDesignDay
7,-0.6
2,1,12,21, 0,13,45.00,60.00,WinterDesignDay
7,-0.6
2,1,12,21, 0,13, 0.00,60.00,WinterDesignDay
4438,128777.1390851316
2,1,12,21, 0,14, 0.00,15.00,WinterDesignDay
7,-0.6
2,1,12,21, 0,14,15.00,30.00,WinterDesignDay
7,-0.6
2,1,12,21, 0,14,30.00,45.00,WinterDesignDay
7,-0.6
2,1,12,21, 0,14,45.00,60.00,WinterDesignDay
7,-0.6
2,1,12,21, 0,14, 0.00,60.00,WinterDesignDay
4438,127637.46537099546
2,1,12,21, 0,15, 0.00,15.00,WinterDesignDay
7,-0.6
2,1,12,21, 0,15,15.00,30.00,WinterDesignDay
7,-0.6
2,1,12,21, 0,15,30.00,45.00,WinterDesignDay
7,-0.6
2,1,12,21, 0,15,45.00,60.00,WinterDesignDay
7,-0.6
2,1,12,21, 0,15, 0.00,60.00,WinterDesignDay
4438,126824.38370535696
2,1,12,21, 0,16, 0.00,15.00,WinterDesignDay
7,-0.6
2,1,12,21, 0,16,15.00,30.00,WinterDesignDay
7,-0.6
2,1,12,21, 0,16,30.00,45.00,WinterDesignDay
7,-0.6
2,1,12,21, 0,16,45.00,60.00,WinterDesignDay
7,-0.6
2,1,12,21, 0,16, 0.00,60.00,WinterDesignDay
4438,126253.98196227453
2,1,12,21, 0,17, 0.00,15.00,WinterDesignDay
7,-0.6
2,1,12,21, 0,17,15.00,30.00,WinterDesignDay
7,-0.6
2,1,12,21, 0,17,30.00,45.00,WinterDesignDay
7,-0.6
2,1,12,21, 0,17,45.00,60.00,WinterDesignDay
7,-0.6
2,1,12,21, 0,17, 0.00,60.00,WinterDesignDay
4438,125852.1386017377
2,1,12,21, 0,18, 0.00,15.00,WinterDesignDay
7,-0.6
2,1,12,21, 0,18,15.00,30.00,WinterDesignDay
7,-0.6
2,1,12,21, 0,18,30.00,45.00,WinterDesignDay
7,-0.6
2,1,12,21, 0,18,45.00,60.00,WinterDesignDay
7,-0.6
2,1,12,21, 0,18, 0.00,60.00,WinterDesignDay
4438,125530.04620299483
2,1,12,21, 0,19, 0.00,15.00,WinterDesignDay
7,-0.6
2,1,12,21, 0,19,15.00,30.00,WinterDesignDay
7,-0.6
2,1,12,21, 0,19,30.00,45.00,WinterDesignDay
7,-0.6
2,1,12,21, 0,19,45.00,60.00,WinterDesignDay
7,-0.6
2,1,12,21, 0,19, 0.00,60.00,WinterDesignDay
4438,125312.85987849147
2,1,12,21, 0,20, 0.00,15.00,WinterDesignDay
7,-0.6
2,1,12,21, 0,20,15.00,30.00,WinterDesignDay
7,-0.6
2,1,12,21, 0,20,30.00,45.00,WinterDesignDay
7,-0.6
2,1,12,21, 0,20,45.00,60.00,WinterDesignDay
7,-0.6
2,1,12,21, 0,20, 0.00,60.00,WinterDesignDay
4438,125159.06988739754
2,1,12,21, 0,21, 0.00,15.00,WinterDesignDay
7,-0.6
2,1,12,21, 0,21,15.00,30.00,WinterDesignDay
7,-0.6
2,1,12,21, 0,21,30.00,45.00,WinterDesignDay
7,-0.6
2,1,12,21, 0,21,45.00,60.00,WinterDesignDay
7,-0.6
2,1,12,21, 0,21, 0.00,60.00,WinterDesignDay
4438,125030.7465710999
2,1,12,21, 0,22, 0.00,15.00,WinterDesignDay
7,-0.6
2,1,12,21, 0,22,15.00,30.00,WinterDesignDay
7,-0.6
2,1,12,21, 0,22,30.00,45.00,WinterDesignDay
7,-0.6
2,1,12,21, 0,22,45.00,60.00,WinterDesignDay
7,-0.6
2,1,12,21, 0,22, 0.00,60.00,WinterDesignDay
4438,72129.25926695089
2,1,12,21, 0,23, 0.00,15.00,WinterDesignDay
7,-0.6
2,1,12,21, 0,23,15.00,30.00,WinterDesignDay
7,-0.6
2,1,12,21, 0,23,30.00,45.00,WinterDesignDay
7,-0.6
2,1,12,21, 0,23,45.00,60.00,WinterDesignDay
7,-0.6
2,1,12,21, 0,23, 0.00,60.00,WinterDesignDay
4438,83185.16295793395
2,1,12,21, 0,24, 0.00,15.00,WinterDesignDay
7,-0.6
2,1,12,21, 0,24,15.00,30.00,WinterDesignDay
7,-0.6
2,1,12,21, 0,24,30.00,45.00,WinterDesignDay
7,-0.6
2,1,12,21, 0,24,45.00,60.00,WinterDesignDay
7,-0.6
2,1,12,21, 0,24, 0.00,60.00,WinterDesignDay
4438,90732.49348996808
1,CA_SACRAMENTO-EXECUTIVE- AUGUST .4% CONDNS DB=>MCWB,  38.51,-121.50,  -8.00,   7.00
2,1, 8,21, 0, 1, 0.00,15.00,SummerDesignDay
7,25.604
2,1, 8,21, 0, 1,15.00,30.00,SummerDesignDay
7,25.339999999999998
2,1, 8,21, 0, 1,30.00,45.00,SummerDesignDay
7,25.075999999999998
2,1, 8,21, 0, 1,45.00,60.00,SummerDesignDay
7,24.811999999999999
2,1, 8,21, 0, 1, 0.00,60.00,SummerDesignDay
4438,0.0
2,1, 8,21, 0, 2, 0.00,15.00,SummerDesignDay
7,24.635999999999997
2,1, 8,21, 0, 2,15.00,30.00,SummerDesignDay
7,24.459999999999995
2,1, 8,21, 0, 2,30.00,45.00,SummerDesignDay
7,24.283999999999997
2,1, 8,21, 0, 2,45.00,60.00,SummerDesignDay
7,24.107999999999995
2,1, 8,21, 0, 2, 0.00,60.00,SummerDesignDay
4438,0.0
2,1, 8,21, 0, 3, 0.00,15.00,SummerDesignDay
7,23.975999999999997
2,1, 8,21, 0, 3,15.00,30.00,SummerDesignDay
7,23.843999999999995
2,1, 8,21, 0, 3,30.00,45.00,SummerDesignDay
7,23.711999999999997
2,1, 8,21, 0, 3,45.00,60.00,SummerDesignDay
7,23.58
2,1, 8,21, 0, 3, 0.00,60.00,SummerDesignDay
4438,0.0