Program Version,EnergyPlus, Version 9.0.1-bb7ca4f0da, YMD=2020.01.08 20:43
1,5,Environment Title[],Latitude[deg],Longitude[deg],Time Zone[],Elevation[m]
2,8,Day of Simulation[],Month[],Day of Month[],DST Indicator[1=yes 0=no],Hour[],StartMinute[],EndMinute[],DayType
3,5,Cumulative Day of Simulation[],Month[],Day of Month[],DST Indicator[1=yes 0=no],DayType  ! When Daily Meters Requested
4,2,Cumulative Days of Simulation[],Month[]  ! When Monthly Meters Requested
5,1,Cumulative Days of Simulation[] ! When Run Period Meters Requested
6,1,Calendar Year of Simulation[] ! When Annual Meters Requested
4243,1,Heating:Electricity [J] !Hourly
1556,1,Receptacle:InteriorEquipment:Gas [J] !Hourly
2227,1,WaterSystems:Electricity [J] !Hourly
4121,1,Fans:Electricity [J] !Hourly
10,1,Electricity:Facility [J] !Hourly
46,1,InteriorLights:Electricity [J] !Hourly
992,1,InteriorEquipment:Electricity [J] !Hourly
4480,1,Pumps:Electricity [J] !Hourly
4354,1,Cooling:Electricity [J] !Hourly
1496,1,Gas:Facility [J] !Hourly
1532,1,InteriorEquipment:Gas [J] !Hourly
4230,1,Heating:Gas [J] !Hourly
2365,1,WaterSystems:Gas [J] !Hourly
1016,1,Receptacle:InteriorEquipment:Electricity [J] !Hourly
70,1,ComplianceLtg:InteriorLights:Electricity [J] !Hourly
345,1,NonComplianceLtg:InteriorLights:Electricity [J] !Hourly
4133,1,General:Fans:Electricity [J] !Hourly
4170,1,ProcessMotors:Fans:Electricity [J] !Hourly
End of Data Dictionary
1,CA_SACRAMENTO-EXECUTIVE- ANN CLG .4% CONDNS DB=>MWB,  38.51,-121.50,  -8.00,   7.00
2,1, 7,21, 0, 1, 0.00,60.00,SummerDesignDay
10,784195063.4088926
46,249737579.99999974
70,96701579.99999997
345,153035999.9999997
992,231449399.99999977
1016,231449399.99999977
1496,64073079.50956658
1532,57764642.17263899
1556,57764642.17263899
2227,17932390.738620439
2365,6308437.336927591
4121,113595010.78828267
4133,40.389668646626187
4170,113594920.84638605
4230,0.0
4243,0.0
4354,171480681.88198976
4480,0.0
2,1, 7,21, 0, 2, 0.00,60.00,SummerDesignDay
10,772513982.2912535
46,249737579.99999974
70,96701579.99999997
345,153035999.9999997
992,231449399.99999977
1016,231449399.99999977
1496,64072844.542117837
1532,57764642.17263899
1556,57764642.17263899
2227,18984237.096346499
2365,6308202.3694788389
4121,113595008.16754768
4133,40.40046350735582
4170,113594920.84638605
4230,0.0
4243,0.0
4354,158747757.0273591
4480,0.0
2,1, 7,21, 0, 3, 0.00,60.00,SummerDesignDay
10,763589913.3729928
46,249737579.99999974
70,96701579.99999997
345,153035999.9999997
992,231449399.99999977
1016,231449399.99999977
1496,64177798.732193898
1532,57764642.17263899
1556,57764642.17263899
2227,18757538.334111297
2365,6413156.559554903
4121,113595006.38812249
4133,40.40901885309186
4170,113594920.84638605
4230,0.0
4243,0.0
4354,150050388.65075893
4480,0.0
2,1, 7,21, 0, 4, 0.00,60.00,SummerDesignDay
10,755430618.5360243
46,249737579.99999974
70,96701579.99999997
345,153035999.9999997
992,231449399.99999977
1016,231449399.99999977
1496,64226238.5727611
1532,57764642.17263899
1556,57764642.17263899
2227,18159013.22133478
2365,6461596.40012211
4121,113595004.85149659
4133,40.415188700432889
4170,113594920.84638605
4230,0.0
4243,0.0
4354,142489620.46319313
4480,0.0
2,1, 7,21, 0, 5, 0.00,60.00,SummerDesignDay
10,750252134.3567886
46,249737579.99999974
70,96701579.99999997
345,153035999.9999997
992,231449399.99999977
1016,231449399.99999977
1496,64226210.66665635
1532,57764642.17263899
1556,57764642.17263899
2227,18984268.7443767
2365,6461568.494017361
4121,113595003.59267023
4133,40.41928765839033
4170,113594920.84638605
4230,0.0
4243,0.0
4354,136485882.01974166
4480,0.0
2,1, 7,21, 0, 6, 0.00,60.00,SummerDesignDay
10,779332067.8036649
46,249737579.99999974
70,96701579.99999997
345,153035999.9999997
992,231449399.99999977
1016,231449399.99999977
1496,64226419.658775608
1532,57764642.17263899
1556,57764642.17263899
2227,18530479.9272186
2365,6461777.4861366129
4121,113595014.9812768
4133,46.555273416404158
4170,113594920.84638605
4230,0.0
4243,0.0
4354,166019592.89516945
4480,0.0
2,1, 7,21, 0, 7, 0.00,60.00,SummerDesignDay
10,870788014.7550178
46,249737579.99999974
70,96701579.99999997
345,153035999.9999997
992,231449399.99999977
1016,231449399.99999977
1496,64202001.69322238
1532,57764642.17263899
1556,57764642.17263899
2227,18387834.08008867
2365,6437359.520583386
4121,113595060.6087999
4133,80.37496214010997
4170,113594920.84638605
4230,0.0
4243,0.0
4354,257618140.06612889
4480,0.0
2,1, 7,21, 0, 8, 0.00,60.00,SummerDesignDay
10,892946636.0258508
46,249737579.99999974
70,96701579.99999997
345,153035999.9999997
992,231449399.99999977
1016,231449399.99999977
1496,64072870.73943594
1532,57764642.17263899
1556,57764642.17263899
2227,18984166.563112994
2365,6308228.56679695
4121,113595053.47951129
4133,62.725240974674509
4170,113594920.84638605
4230,0.0
4243,0.0
4354,279180435.9832264
4480,0.0
2,1, 7,21, 0, 9, 0.00,60.00,SummerDesignDay
10,942918515.6434918
46,249737579.99999974
70,96701579.99999997
345,153035999.9999997
992,231449399.99999977
1016,231449399.99999977
1496,64073026.20482189
1532,57764642.17263899
1556,57764642.17263899
2227,18301990.972296079
2365,6308384.032182906
4121,113595065.31054712
4133,60.73559238761037
4170,113594920.84638605
4230,0.0
4243,0.0
4354,329834479.3606485
4480,0.0
2,1, 7,21, 0,10, 0.00,60.00,SummerDesignDay
10,993613435.2546345
46,249737579.99999974
70,96701579.99999997
345,153035999.9999997
992,231449399.99999977
1016,231449399.99999977
1496,64202764.63247982
1532,57764642.17263899
1556,57764642.17263899
2227,18615504.394730186
2365,6438122.459840832
4121,113595076.09209697
4133,61.02630351690594
4170,113594920.84638605
4230,0.0
4243,0.0
4354,380215874.7678071
4480,0.0
2,1, 7,21, 0,11, 0.00,60.00,SummerDesignDay
10,1037856147.0011753
46,249737579.99999974
70,96701579.99999997
345,153035999.9999997
992,231449399.99999977
1016,231449399.99999977
1496,64226394.99313831
1532,57764642.17263899
1556,57764642.17263899
2227,18984393.86738547
2365,6461752.820499327
4121,113595083.6273447
4133,61.45940496230908
4170,113594920.84638605
4230,0.0
4243,0.0
4354,424089689.506445
4480,0.0
2,1, 7,21, 0,12, 0.00,60.00,SummerDesignDay
10,1071354531.7488151
46,249737579.99999974
70,96701579.99999997
345,153035999.9999997
992,231449399.99999977
1016,231449399.99999977
1496,64226257.81309696
1532,57764642.17263899
1556,57764642.17263899
2227,18073960.017296468
2365,6461615.640457971
4121,113595088.94714752
4133,61.93856381174702
4170,113594920.84638605
4230,0.0
4243,0.0
4354,458498502.7843708
4480,0.0
2,1, 7,21, 0,13, 0.00,60.00,SummerDesignDay
10,1101210798.3815363
46,249737579.99999974
70,96701579.99999997
345,153035999.9999997
992,231449399.99999977
1016,231449399.99999977
1496,64226325.11204989
1532,57764642.17263899
1556,57764642.17263899
2227,18842966.944624064
2365,6461682.939410901
4121,113595094.25897244
4133,62.6480722999575
4170,113594920.84638605
4230,0.0
4243,0.0
4354,487585757.1779397
4480,0.0
2,1, 7,21, 0,14, 0.00,60.00,SummerDesignDay
10,1128461803.3804219
46,249737579.99999974
70,96701579.99999997
345,153035999.9999997
992,231449399.99999977
1016,231449399.99999977
1496,64176217.94232111
1532,57764642.17263899
1556,57764642.17263899
2227,18983519.263904659
2365,6411575.769682112
4121,113595101.07132875
4133,63.84023048187808
4170,113594920.84638605
4230,0.0
4243,0.0
4354,514696203.04518887
4480,0.0
2,1, 7,21, 0,15, 0.00,60.00,SummerDesignDay
10,1148528700.6313358
46,249737579.99999974
70,96701579.99999997
345,153035999.9999997
992,231449399.99999977
1016,231449399.99999977
1496,64072947.28894317
1532,57764642.17263899
1556,57764642.17263899
2227,17932812.505413269
2365,6308305.116304188
4121,113595109.6305105
4133,65.77550278662869
4170,113594920.84638605
4230,0.0
4243,0.0
4354,535813798.49541226
4480,0.0
2,1, 7,21, 0,16, 0.00,60.00,SummerDesignDay
10,1149889349.6378604
46,249737579.99999974
70,96701579.99999997
345,153035999.9999997
992,231449399.99999977
1016,231449399.99999977
1496,64074881.335818368
1532,57764642.17263899
1556,57764642.17263899
2227,18984370.476381054
2365,6310239.163179379
4121,113595114.32965929
4133,67.40163962926188
4170,113594920.84638605
4230,0.0
4243,0.0
4354,536122884.8318198
4480,0.0
2,1, 7,21, 0,17, 0.00,60.00,SummerDesignDay
10,1127789613.7307263
46,249737579.99999974
70,96701579.99999997
345,153035999.9999997
992,231449399.99999977
1016,231449399.99999977
1496,64226103.17491104
1532,57764642.17263899
1556,57764642.17263899
2227,18983683.41874798
2365,6461461.002272049
4121,113595111.36801785
4133,67.30678283839564
4170,113594920.84638605
4230,0.0
4243,0.0
4354,514023838.94396039
4480,0.0
2,1, 7,21, 0,18, 0.00,60.00,SummerDesignDay
10,1091719601.652511
46,249737579.99999974
70,96701579.99999997
345,153035999.9999997
992,231449399.99999977
1016,231449399.99999977
1496,64226146.04795107
1532,57764642.17263899
1556,57764642.17263899
2227,17932904.445575168
2365,6461503.875312086
4121,113595103.51515633
4133,66.25594775741715
4170,113594920.84638605
4230,0.0
4243,0.0
4354,479004613.6917794
4480,0.0
2,1, 7,21, 0,19, 0.00,60.00,SummerDesignDay
10,1038382646.1542256
46,249737579.99999974
70,96701579.99999997
345,153035999.9999997
992,231449399.99999977
1016,231449399.99999977
1496,64226261.120050858
1532,57764642.17263899
1556,57764642.17263899
2227,18984322.848852587
2365,6461618.947411862
4121,113595088.24935162
4133,63.305087168165787
4170,113594920.84638605
4230,0.0
4243,0.0
4354,424616255.0560213
4480,0.0
2,1, 7,21, 0,20, 0.00,60.00,SummerDesignDay
10,972493878.4204006
46,249737579.99999974
70,96701579.99999997
345,153035999.9999997
992,231449399.99999977
1016,231449399.99999977
1496,64226341.274955559
1532,57764642.17263899
1556,57764642.17263899
2227,18792194.144207479
2365,6461699.102316561
4121,113595065.58003123
4133,59.64931719869843
4170,113594920.84638605
4230,0.0
4243,0.0
4354,358919638.69616207
4480,0.0
2,1, 7,21, 0,21, 0.00,60.00,SummerDesignDay
10,927798004.0497646
46,249737579.99999974
70,96701579.99999997
345,153035999.9999997
992,231449399.99999977
1016,231449399.99999977
1496,64151598.902886349
1532,57764642.17263899
1556,57764642.17263899
2227,18124178.79529138
2365,6386956.730247358
4121,113595050.82108462
4133,56.813196802037968
4170,113594920.84638605
4230,0.0
4243,0.0
4354,314891794.4333886
4480,0.0
2,1, 7,21, 0,22, 0.00,60.00,SummerDesignDay
10,864312278.9286008
46,249737579.99999974
70,96701579.99999997
345,153035999.9999997
992,231449399.99999977
1016,231449399.99999977
1496,64073122.919055689
1532,57764642.17263899
1556,57764642.17263899
2227,18985213.185129525
2365,6308480.746416697
4121,113595030.17328127
4133,44.52416870008995
4170,113594920.84638605
4230,0.0
4243,0.0
4354,250545055.57018996
4480,0.0
2,1, 7,21, 0,23, 0.00,60.00,SummerDesignDay
10,838593261.6164161
46,249737579.99999974
70,96701579.99999997
345,153035999.9999997
992,231449399.99999977
1016,231449399.99999977
1496,64099545.19790882
1532,57764642.17263899
1556,57764642.17263899
2227,18563942.458265395
2365,6334903.025269831
4121,113595023.4656296
4133,44.07225289737089
4170,113594920.84638605
4230,0.0
4243,0.0
4354,225247315.69252116
4480,0.0
2,1, 7,21, 0,24, 0.00,60.00,SummerDesignDay
10,816867538.5094404
46,249737579.99999974
70,96701579.99999997
345,153035999.9999997
992,231449399.99999977
1016,231449399.99999977
1496,64226141.25557293
1532,57764642.17263899
1556,57764642.17263899
2227,18352772.31777393
2365,6461499.082933935
4121,113595018.1376744
4133,43.72592260594077
4170,113594920.84638605
4230,0.0
4243,0.0
4354,203732768.05399213
4480,0.0
1,CA_SACRAMENTO-EXECUTIVE- ANN CLG .4% CONDNS DP=>MDB,  38.51,-121.50,  -8.00,   7.00
2,1, 7,21, 0, 1, 0.00,60.00,SummerDesignDay
10,665068058.2904189
46,249737579.99999974
70,96701579.99999997
345,153035999.9999997
992,231449399.99999977
1016,231449399.99999977
1496,64072978.74034431
1532,57764642.17263899
1556,57764642.17263899
2227,17932443.067735766
2365,6308336.567705324
4121,113594986.62746595
4133,40.35373422837927
4170,113594920.84638605
4230,0.0
4243,0.0
4354,52353648.59521716
4480,0.0
2,1, 7,21, 0, 2, 0.00,60.00,SummerDesignDay
10,651746011.8736305
46,249737579.99999974
70,96701579.99999997
345,153035999.9999997
992,231449399.99999977
1016,231449399.99999977
1496,69193140.10431004
1532,57764642.17263899
1556,57764642.17263899
2227,18984237.048435037
2365,6308202.727355193
4121,113594982.96201557
4133,40.3586605221656
4170,113594920.84638605
4230,5120295.204315862
4243,0.0
4354,37979811.86318002
4480,0.0
2,1, 7,21, 0, 3, 0.00,60.00,SummerDesignDay
10,646728025.0238133
46,249737579.99999974
70,96701579.99999997
345,153035999.9999997
992,231449399.99999977
1016,231449399.99999977
1496,84233355.35621634
1532,57764642.17263899
1556,57764642.17263899
2227,18757237.303290979
2365,6413374.801133687
4121,113594980.32244529
4133,40.3615283795967
4170,113594920.84638605
4230,20055338.382443657
4243,0.0
4354,33188827.398077065
4480,0.0
2,1, 7,21, 0, 4, 0.00,60.00,SummerDesignDay
10,642040784.768385
46,249737579.99999974
70,96701579.99999997
345,153035999.9999997
992,231449399.99999977
1016,231449399.99999977
1496,99350257.68328536
1532,57764642.17263899
1556,57764642.17263899
2227,18159314.441166216
2365,6461595.8750047539
4121,113594978.05518699
4133,40.363204381352939
4170,113594920.84638605
4230,35124019.63564163
4243,0.0
4354,29099512.27203185
4480,0.0
2,1, 7,21, 0, 5, 0.00,60.00,SummerDesignDay
10,639626437.7187462
46,249737579.99999974
70,96701579.99999997
345,153035999.9999997
992,231449399.99999977
1016,231449399.99999977
1496,111388529.69686218
1532,57764642.17263899
1556,57764642.17263899
2227,18984268.875975595
2365,6461568.723893854
4121,113594976.25363806
4133,40.364103545905908
4170,113594920.84638605
4230,47162318.80032933
4243,0.0
4354,25860212.589132508
4480,0.0
2,1, 7,21, 0, 6, 0.00,60.00,SummerDesignDay
10,660708832.8682007
46,249737579.99999974
70,96701579.99999997
345,153035999.9999997
992,231449399.99999977
1016,231449399.99999977
1496,99727115.14680933
1532,57764642.17263899
1556,57764642.17263899
2227,18530309.79281369
2365,6461793.54777335
4121,113594984.79806273
4133,44.12388518930234
4170,113594920.84638605
4230,35500679.42639697
4243,0.0
4354,47396558.27732421
4480,0.0
2,1, 7,21, 0, 7, 0.00,60.00,SummerDesignDay
10,728885601.6211265
46,249737579.99999974
70,96701579.99999997
345,153035999.9999997
992,231449399.99999977
1016,231449399.99999977
1496,66047746.62515694
1532,57764642.17263899
1556,57764642.17263899
2227,18386695.792851889
2365,6436994.774471421
4121,113595011.00236449
4133,58.26314725796441
4170,113594920.84638605
4230,1846109.6780465367
4243,0.0
4354,115716914.8259103
4480,0.0
2,1, 7,21, 0, 8, 0.00,60.00,SummerDesignDay
10,760055516.4280694
46,249737579.99999974
70,96701579.99999997
345,153035999.9999997
992,231449399.99999977
1016,231449399.99999977
1496,64072724.92922621
1532,57764642.17263899
1556,57764642.17263899
2227,18984234.033556206
2365,6308082.756587222
4121,113595016.03166457
4133,51.27322647184508
4170,113594920.84638605
4230,0.0
4243,0.0
4354,146289286.36284865
4480,0.0
2,1, 7,21, 0, 9, 0.00,60.00,SummerDesignDay
10,824608490.2468244
46,249737579.99999974
70,96701579.99999997
345,153035999.9999997
992,231449399.99999977
1016,231449399.99999977
1496,64073027.33873245
1532,57764642.17263899
1556,57764642.17263899
2227,18303404.64934894
2365,6308385.166093448
4121,113595031.90885692
4133,51.40137238151368
4170,113594920.84638605
4230,0.0
4243,0.0
4354,211523073.68861858
4480,0.0
2,1, 7,21, 0,10, 0.00,60.00,SummerDesignDay
10,880930627.9308066
46,249737579.99999974
70,96701579.99999997
345,153035999.9999997
992,231449399.99999977
1016,231449399.99999977
1496,64203217.81121586
1532,57764642.17263899
1556,57764642.17263899
2227,18613919.98047699
2365,6438575.638576869
4121,113595044.71921072
4133,52.34463831911452
4170,113594920.84638605
4230,0.0
4243,0.0
4354,267534683.23111893
4480,0.0
2,1, 7,21, 0,11, 0.00,60.00,SummerDesignDay
10,924027702.8417336
46,249737579.99999974
70,96701579.99999997
345,153035999.9999997
992,231449399.99999977
1016,231449399.99999977
1496,64226303.3014378
1532,57764642.17263899
1556,57764642.17263899
2227,18984040.91957982
2365,6461661.128798815
4121,113595052.82067293
4133,53.164951892673489
4170,113594920.84638605
4230,0.0
4243,0.0
4354,310261629.1014808
4480,0.0
2,1, 7,21, 0,12, 0.00,60.00,SummerDesignDay
10,952969360.6698749
46,249737579.99999974
70,96701579.99999997
345,153035999.9999997
992,231449399.99999977
1016,231449399.99999977
1496,64226257.72087154
1532,57764642.17263899
1556,57764642.17263899
2227,18076541.4966752
2365,6461615.548232543
4121,113595058.4716149
4133,53.87574386672016
4170,113594920.84638605
4230,0.0
4243,0.0
4354,340110780.7015849
4480,0.0
2,1, 7,21, 0,13, 0.00,60.00,SummerDesignDay
10,978048031.2487606
46,249737579.99999974
70,96701579.99999997
345,153035999.9999997
992,231449399.99999977
1016,231449399.99999977
1496,64226408.16233698
1532,57764642.17263899
1556,57764642.17263899
2227,18841144.999212006
2365,6461765.9896979969
4121,113595063.8592143
4133,54.63835742446997
4170,113594920.84638605
4230,0.0
4243,0.0
4354,364424842.3903342
4480,0.0
2,1, 7,21, 0,14, 0.00,60.00,SummerDesignDay
10,1001281059.1486949
46,249737579.99999974
70,96701579.99999997
345,153035999.9999997
992,231449399.99999977
1016,231449399.99999977
1496,64175849.91578908
1532,57764642.17263899
1556,57764642.17263899
2227,18983518.708226727
2365,6411207.743150088
4121,113595070.50762415
4133,55.70688856327705
4170,113594920.84638605
4230,0.0
4243,0.0
4354,387515489.932844
4480,0.0
2,1, 7,21, 0,15, 0.00,60.00,SummerDesignDay
10,1018878654.2693229
46,249737579.99999974
70,96701579.99999997
345,153035999.9999997
992,231449399.99999977
1016,231449399.99999977
1496,64072948.18901321
1532,57764642.17263899
1556,57764642.17263899
2227,17932812.368609106
2365,6308306.016374224
4121,113595078.67133841
4133,57.326478697614479
4170,113594920.84638605
4230,0.0
4243,0.0
4354,406163783.22937527
4480,0.0
2,1, 7,21, 0,16, 0.00,60.00,SummerDesignDay
10,1020726234.2404052
46,249737579.99999974
70,96701579.99999997
345,153035999.9999997
992,231449399.99999977
1016,231449399.99999977
1496,64075247.202625628
1532,57764642.17263899
1556,57764642.17263899
2227,18984371.59753661
2365,6310605.029986637
4121,113595082.90280095
4133,58.70729384702088
4170,113594920.84638605
4230,0.0
4243,0.0
4354,406959799.74006798
4480,0.0
2,1, 7,21, 0,17, 0.00,60.00,SummerDesignDay
10,1001899750.131069
46,249737579.99999974
70,96701579.99999997
345,153035999.9999997
992,231449399.99999977
1016,231449399.99999977
1496,64281610.032062169
1532,57764642.17263899
1556,57764642.17263899
2227,18983682.10168912
2365,6461461.531603204
4121,113595079.81793241
4133,58.71769838882013
4170,113594920.84638605
4230,55506.327819967104
4243,0.0
4354,388134008.21144738
4480,0.0
2,1, 7,21, 0,18, 0.00,60.00,SummerDesignDay
10,971055007.8330629
46,249737579.99999974
70,96701579.99999997
345,153035999.9999997
992,231449399.99999977
1016,231449399.99999977
1496,64468964.354225497
1532,57764642.17263899
1556,57764642.17263899
2227,17933531.377321219
2365,6461293.162239201
4121,113595072.10485044
4133,57.89697453389543
4170,113594920.84638605
4230,243029.0193473085
4243,0.0
4354,358339424.35089126
4480,0.0
2,1, 7,21, 0,19, 0.00,60.00,SummerDesignDay
10,923085132.8319296
46,249737579.99999974
70,96701579.99999997
345,153035999.9999997
992,231449399.99999977
1016,231449399.99999977
1496,64716984.65482809
1532,57764642.17263899
1556,57764642.17263899
2227,18984322.908001193
2365,6461618.9545611659
4121,113595057.87217196
4133,55.59322693599522
4170,113594920.84638605
4230,490723.5276279233
4243,0.0
4354,309318772.0517565
4480,0.0
2,1, 7,21, 0,20, 0.00,60.00,SummerDesignDay
10,862391051.3563781
46,249737579.99999974
70,96701579.99999997
345,153035999.9999997
992,231449399.99999977
1016,231449399.99999977
1496,65055891.07532393
1532,57764642.17263899
1556,57764642.17263899
2227,18792489.83465131
2365,6461699.10960084
4121,113595036.87947016
4133,52.74100212260214
4170,113594920.84638605
4230,829549.7930841022
4243,0.0
4354,248816544.6422565
4480,0.0
2,1, 7,21, 0,21, 0.00,60.00,SummerDesignDay
10,819816263.4724476
46,249737579.99999974
70,96701579.99999997
345,153035999.9999997
992,231449399.99999977
1016,231449399.99999977
1496,65309651.84277393
1532,57764642.17263899
1556,57764642.17263899
2227,18123901.291374048
2365,6386914.819757028
4121,113595023.00470907
4133,50.50852174028906
4170,113594920.84638605
4230,1158094.850377916
4243,0.0
4354,206910359.17636479
4480,0.0
2,1, 7,21, 0,22, 0.00,60.00,SummerDesignDay
10,763538146.3190771
46,249737579.99999974
70,96701579.99999997
345,153035999.9999997
992,231449399.99999977
1016,231449399.99999977
1496,64073401.09616909
1532,57764642.17263899
1556,57764642.17263899
2227,18985271.413722964
2365,6308758.923530104
4121,113595007.3403872
4133,43.30606198339234
4170,113594920.84638605
4230,0.0
4243,0.0
4354,149770887.56496693
4480,0.0
2,1, 7,21, 0,23, 0.00,60.00,SummerDesignDay
10,730666905.3479524
46,249737579.99999974
70,96701579.99999997
345,153035999.9999997
992,231449399.99999977
1016,231449399.99999977
1496,64099333.13498096
1532,57764642.17263899
1556,57764642.17263899
2227,18564696.260597126
2365,6334690.96234197
4121,113595000.08185393
4133,42.90015170051565
4170,113594920.84638605
4230,0.0
4243,0.0
4354,117320229.00550145
4480,0.0
2,1, 7,21, 0,24, 0.00,60.00,SummerDesignDay
10,702726338.4865196
46,249737579.99999974
70,96701579.99999997
345,153035999.9999997
992,231449399.99999977
1016,231449399.99999977
1496,64226140.90572299
1532,57764642.17263899
1556,57764642.17263899
2227,18352017.609879596
2365,6461498.733084001
4121,113594993.98722576
4133,42.60436482435842
4170,113594920.84638605
4230,0.0
4243,0.0
4354,89592346.88941439
4480,0.0
1,CA_SACRAMENTO-EXECUTIVE- ANN CLG .4% CONDNS WB=>MDB,  38.51,-121.50,  -8.00,   7.00
2,1, 7,21, 0, 1, 0.00,60.00,SummerDesignDay
10,768304144.2600786
46,249737579.99999974
70,96701579.99999997
345,153035999.9999997
992,231449399.99999977
1016,231449399.99999977
1496,64073079.50956658
1532,57764642.17263899
1556,57764642.17263899
2227,17932390.738620439
2365,6308437.336927591
4121,113595007.43180539
4133,40.37545850092476
4170,113594920.84638605
4230,0.0
4243,0.0
4354,155589766.08965285
4480,0.0
2,1, 7,21, 0, 2, 0.00,60.00,SummerDesignDay
10,758531536.226181
46,249737579.99999974
70,96701579.99999997
345,153035999.9999997
992,231449399.99999977
1016,231449399.99999977
1496,64072844.542117837
1532,57764642.17263899
1556,57764642.17263899
2227,18984237.096346499
2365,6308202.3694788389
4121,113595004.69664853
4133,40.385110919730838
4170,113594920.84638605
4230,0.0
4243,0.0
4354,144765314.4331863
4480,0.0
2,1, 7,21, 0, 3, 0.00,60.00,SummerDesignDay
10,751290881.9663465
46,249737579.99999974
70,96701579.99999997
345,153035999.9999997
992,231449399.99999977
1016,231449399.99999977
1496,64177798.732193898
1532,57764642.17263899
1556,57764642.17263899
2227,18757538.334111297
2365,6413156.559554903
4121,113595002.85453412
4133,40.39116280780492
4170,113594920.84638605
4230,0.0
4243,0.0
4354,137751360.77770127
4480,0.0
2,1, 7,21, 0, 4, 0.00,60.00,SummerDesignDay
10,744526985.0505843
46,249737579.99999974
70,96701579.99999997
345,153035999.9999997
992,231449399.99999977
1016,231449399.99999977
1496,64226238.5727611
1532,57764642.17263899
1556,57764642.17263899
2227,18159013.22133478
2365,6461596.40012211
4121,113595001.22535932
4133,40.395487876952589
4170,113594920.84638605
4230,0.0
4243,0.0
4354,131585990.60389048
4480,0.0
2,1, 7,21, 0, 5, 0.00,60.00,SummerDesignDay
10,740433205.4694277
46,249737579.99999974
70,96701579.99999997
345,153035999.9999997
992,231449399.99999977
1016,231449399.99999977
1496,64226210.66665635
1532,57764642.17263899
1556,57764642.17263899
2227,18984268.7443767
2365,6461568.494017361
4121,113594999.87962576
4133,40.398457364259218
4170,113594920.84638605
4230,0.0
4243,0.0
4354,126666956.84542531
4480,0.0
2,1, 7,21, 0, 6, 0.00,60.00,SummerDesignDay
10,770731346.0358949
46,249737579.99999974
70,96701579.99999997
345,153035999.9999997
992,231449399.99999977
1016,231449399.99999977
1496,64226360.15196747
1532,57764642.17263899
1556,57764642.17263899
2227,18530383.77958808
2365,6461717.979328481
4121,113595011.24851945
4133,46.01779049734871
4170,113594920.84638605
4230,0.0
4243,0.0
4354,157418971.00778745
4480,0.0
2,1, 7,21, 0, 7, 0.00,60.00,SummerDesignDay
10,867815057.4898983
46,249737579.99999974
70,96701579.99999997
345,153035999.9999997
992,231449399.99999977
1016,231449399.99999977
1496,64202085.82610025
1532,57764642.17263899
1556,57764642.17263899
2227,18387475.492126846
2365,6437443.653461266
4121,113595051.1899914
4133,73.17606217656227
4170,113594920.84638605
4230,0.0
4243,0.0
4354,254645550.80778007
4480,0.0
2,1, 7,21, 0, 8, 0.00,60.00,SummerDesignDay
10,888261969.9416232
46,249737579.99999974
70,96701579.99999997
345,153035999.9999997
992,231449399.99999977
1016,231449399.99999977
1496,64072724.13130897
1532,57764642.17263899
1556,57764642.17263899
2227,18984231.66728181
2365,6308081.958669983
4121,113595048.2887398
4133,59.10541186820524
4170,113594920.84638605
4230,0.0
4243,0.0
4354,274495709.98560157
4480,0.0
2,1, 7,21, 0, 9, 0.00,60.00,SummerDesignDay
10,939312324.3654332
46,249737579.99999974
70,96701579.99999997
345,153035999.9999997
992,231449399.99999977
1016,231449399.99999977
1496,64073026.55735049
1532,57764642.17263899
1556,57764642.17263899
2227,18301970.152507064
2365,6308384.384711495
4121,113595060.5052846
4133,57.888201032858479
4170,113594920.84638605
4230,0.0
4243,0.0
4354,326228313.7076414
4480,0.0
2,1, 7,21, 0,10, 0.00,60.00,SummerDesignDay
10,988177210.6587547
46,249737579.99999974
70,96701579.99999997
345,153035999.9999997
992,231449399.99999977
1016,231449399.99999977
1496,64202753.34971936
1532,57764642.17263899
1556,57764642.17263899
2227,18615738.28743713
2365,6438111.177080374
4121,113595071.40635349
4133,58.43088504146052
4170,113594920.84638605
4230,0.0
4243,0.0
4354,374779420.9649641
4480,0.0
2,1, 7,21, 0,11, 0.00,60.00,SummerDesignDay
10,1030263758.125234
46,249737579.99999974
70,96701579.99999997
345,153035999.9999997
992,231449399.99999977
1016,231449399.99999977
1496,64226164.21492502
1532,57764642.17263899
1556,57764642.17263899
2227,18983950.63200548
2365,6461522.042286029
4121,113595079.03809904
4133,59.00285588610183
4170,113594920.84638605
4230,0.0
4243,0.0
4354,416497748.45512947
4480,0.0
2,1, 7,21, 0,12, 0.00,60.00,SummerDesignDay
10,1061446906.1984353
46,249737579.99999974
70,96701579.99999997
345,153035999.9999997
992,231449399.99999977
1016,231449399.99999977
1496,64226258.1281981
1532,57764642.17263899
1556,57764642.17263899
2227,18074294.7360819
2365,6461615.955559111
4121,113595084.20945414
4133,59.558586958940129
4170,113594920.84638605
4230,0.0
4243,0.0
4354,448590547.2528994
4480,0.0
2,1, 7,21, 0,13, 0.00,60.00,SummerDesignDay
10,1089708371.6283899
46,249737579.99999974
70,96701579.99999997
345,153035999.9999997
992,231449399.99999977
1016,231449399.99999977
1496,64226326.596890229
1532,57764642.17263899
1556,57764642.17263899
2227,18842631.78684008
2365,6461684.424251231
4121,113595089.4116254
4133,60.28853527503816
4170,113594920.84638605
4230,0.0
4243,0.0
4354,476083670.42992416
4480,0.0
2,1, 7,21, 0,14, 0.00,60.00,SummerDesignDay
10,1115826310.8255406
46,249737579.99999974
70,96701579.99999997
345,153035999.9999997
992,231449399.99999977
1016,231449399.99999977
1496,64176902.7942935
1532,57764642.17263899
1556,57764642.17263899
2227,18983519.120060304
2365,6412260.621654515
4121,113595096.14468518
4133,61.44745826370692
4170,113594920.84638605
4230,0.0
4243,0.0
4354,502060715.56079497
4480,0.0
2,1, 7,21, 0,15, 0.00,60.00,SummerDesignDay
10,1135160062.9903303
46,249737579.99999974
70,96701579.99999997
345,153035999.9999997
992,231449399.99999977
1016,231449399.99999977
1496,64072945.61536506
1532,57764642.17263899
1556,57764642.17263899
2227,17932812.46967691
2365,6308303.44272606
4121,113595104.57853893
4133,63.29472025594785
4170,113594920.84638605
4230,0.0
4243,0.0
4354,522445165.9421141
4480,0.0
2,1, 7,21, 0,16, 0.00,60.00,SummerDesignDay
10,1136234081.8984016
46,249737579.99999974
70,96701579.99999997
345,153035999.9999997
992,231449399.99999977
1016,231449399.99999977
1496,64074200.51373342
1532,57764642.17263899
1556,57764642.17263899
2227,18984370.765321949
2365,6309558.341094432
4121,113595109.03606923
4133,64.85134435916743
4170,113594920.84638605
4230,0.0
4243,0.0
4354,522467622.09701058
4480,0.0
2,1, 7,21, 0,17, 0.00,60.00,SummerDesignDay
10,1114428289.35848
46,249737579.99999974
70,96701579.99999997
345,153035999.9999997
992,231449399.99999977
1016,231449399.99999977
1496,64226102.19284406
1532,57764642.17263899
1556,57764642.17263899
2227,18983683.078391989
2365,6461460.020205077
4121,113595105.87076268
4133,64.78602818160953
4170,113594920.84638605
4230,0.0
4243,0.0
4354,500662520.40932556
4480,0.0
2,1, 7,21, 0,18, 0.00,60.00,SummerDesignDay
10,1079335572.1529675
46,249737579.99999974
70,96701579.99999997
345,153035999.9999997
992,231449399.99999977
1016,231449399.99999977
1496,64226145.91835684
1532,57764642.17263899
1556,57764642.17263899
2227,17932904.21043993
2365,6461503.745717853
4121,113595097.92326609
4133,63.798990487452389
4170,113594920.84638605
4230,0.0
4243,0.0
4354,466620590.0192613
4480,0.0
2,1, 7,21, 0,19, 0.00,60.00,SummerDesignDay
10,1027283692.473578
46,249737579.99999974
70,96701579.99999997
345,153035999.9999997
992,231449399.99999977
1016,231449399.99999977
1496,64226260.54688397
1532,57764642.17263899
1556,57764642.17263899
2227,18984322.916049277
2365,6461618.374244974
4121,113595082.63438304
4133,61.027641663644967
4170,113594920.84638605
4230,0.0
4243,0.0
4354,413517306.9231458
4480,0.0
2,1, 7,21, 0,20, 0.00,60.00,SummerDesignDay
10,962728124.0097058
46,249737579.99999974
70,96701579.99999997
345,153035999.9999997
992,231449399.99999977
1016,231449399.99999977
1496,64226340.6909349
1532,57764642.17263899
1556,57764642.17263899
2227,18792529.889483386
2365,6461698.518295903
4121,113595060.01193598
4133,57.59451626901597
4170,113594920.84638605
4230,0.0
4243,0.0