Program Version,EnergyPlus, Version 9.0.1-bb7ca4f0da, YMD=2019.12.18 15:52
1,5,Environment Title[],Latitude[deg],Longitude[deg],Time Zone[],Elevation[m]
2,8,Day of Simulation[],Month[],Day of Month[],DST Indicator[1=yes 0=no],Hour[],StartMinute[],EndMinute[],DayType
3,5,Cumulative Day of Simulation[],Month[],Day of Month[],DST Indicator[1=yes 0=no],DayType  ! When Daily Meters Requested
4,2,Cumulative Days of Simulation[],Month[]  ! When Monthly Meters Requested
5,1,Cumulative Days of Simulation[] ! When Run Period Meters Requested
6,1,Calendar Year of Simulation[] ! When Annual Meters Requested
4126,1,General:Fans:Electricity [J] !Hourly
993,1,InteriorEquipment:Electricity [J] !Hourly
47,1,InteriorLights:Electricity [J] !Hourly
11,1,Electricity:Facility [J] !Hourly
4235,1,Heating:Electricity [J] !Hourly
4114,1,Fans:Electricity [J] !Hourly
4471,1,Pumps:Electricity [J] !Hourly
4350,1,Cooling:Electricity [J] !Hourly
2228,1,WaterSystems:Electricity [J] !Hourly
1017,1,Receptacle:InteriorEquipment:Electricity [J] !Hourly
1497,1,Gas:Facility [J] !Hourly
1533,1,InteriorEquipment:Gas [J] !Hourly
4222,1,Heating:Gas [J] !Hourly
2366,1,WaterSystems:Gas [J] !Hourly
1557,1,Receptacle:InteriorEquipment:Gas [J] !Hourly
71,1,ComplianceLtg:InteriorLights:Electricity [J] !Hourly
346,1,NonComplianceLtg:InteriorLights:Electricity [J] !Hourly
4162,1,ProcessMotors:Fans:Electricity [J] !Hourly
End of Data Dictionary
1,SANTA-MARIA_723940_CZ2010,  34.92,-120.47,  -8.00,  77.00
2,1, 1, 1, 0, 1, 0.00,60.00,Holiday
11,66341911.105835247
47,24156278.99999996
71,4835078.999999999
346,19321199.999999968
993,18722069.99999997
1017,18722069.99999997
1497,1043088.8974549362
1533,0.0
1557,0.0
2228,805855.6604249028
2366,1043088.8974549362
4114,22657706.44541039
4126,8458341.339612134
4162,14199365.105798256
4222,0.0
4235,0.0
4350,0.0
4471,0.0
2,1, 1, 1, 0, 2, 0.00,60.00,Holiday
11,67163070.04950144
47,24156278.99999996
71,4835078.999999999
346,19321199.999999968
993,18722069.99999997
1017,18722069.99999997
1497,1389467.0306143324
1533,0.0
1557,0.0
2228,1611508.8099042783
2366,1042942.5953074574
4114,22673212.239597206
4126,8458341.339612134
4162,14199365.105798256
4222,346524.43530687488
4235,0.0
4350,0.0
4471,0.0
2,1, 1, 1, 0, 3, 0.00,60.00,Holiday
11,67320652.923395
47,24156278.99999996
71,4835078.999999999
346,19321199.999999968
993,18722069.99999997
1017,18722069.99999997
1497,5643873.86169224
1533,0.0
1557,0.0
2228,1611351.0284115682
2366,1303635.6994489548
4114,22830952.894983468
4126,8458341.339612134
4162,14199365.105798256
4222,4340238.162243286
4235,0.0
4350,0.0
4471,0.0
2,1, 1, 1, 0, 4, 0.00,60.00,Holiday
11,67502825.61055885
47,24156278.99999996
71,4835078.999999999
346,19321199.999999968
993,18722069.99999997
1017,18722069.99999997
1497,21342560.653521498
1533,0.0
1557,0.0
2228,1192444.4004496639
2366,1037500.186553645
4114,23432032.210109239
4126,8458341.339612134
4162,14199365.105798256
4222,20305060.46696785
4235,0.0
4350,0.0
4471,0.0
2,1, 1, 1, 0, 5, 0.00,60.00,Holiday
11,68114947.41663109
47,24156278.99999996
71,4835078.999999999
346,19321199.999999968
993,18722069.99999997
1017,18722069.99999997
1497,38221484.13309848
1533,0.0
1557,0.0
2228,1204652.593346446
2366,1037742.5706137177
4114,24031945.8232847
4126,8458341.339612134
4162,14199365.105798256
4222,37183741.56248476
4235,0.0
4350,0.0
4471,0.0
2,1, 1, 1, 0, 6, 0.00,60.00,Holiday
11,129393994.48128435
47,52754678.99999992
71,4835078.999999999
346,47919599.99999992
993,47320469.999999929
1017,47320469.999999929
1497,93410593.61747489
1533,0.0
1557,0.0
2228,1598351.9938846175
2366,1305678.6069701843
4114,27695558.540675787
4126,12380056.018071456
4162,14199365.105798256
4222,92104915.0105047
4235,55.412406292947277
4350,0.0
4471,24879.53431769003
2,1, 1, 1, 0, 7, 0.00,60.00,Holiday
11,192814341.16706366
47,74203478.99999988
71,4835078.999999999
346,69368399.9999999
993,68769269.9999999
1017,68769269.9999999
1497,625020820.5089989
1533,28597212.921243654
1557,28597212.921243654
2228,805851.2260959809
2366,1042936.9945496044
4114,48944214.68527283
4126,14920301.446431214
4162,14199365.105798256
4222,595380670.5932057
4235,329.38918491582958
4350,0.0
4471,91196.8665101286
2,1, 1, 1, 0, 8, 0.00,60.00,Holiday
11,184382903.75332416
47,74190137.78121677
71,4821737.7812168919
346,69368399.9999999
993,68769269.9999999
1017,68769269.9999999
1497,370048623.4686915
1533,28597212.921243654
1557,28597212.921243654
2228,2479398.0876813845
2366,1323475.5123990218
4114,38844347.72510856
4126,14287472.942453273
4162,14199365.105798256
4222,340127935.03504887
4235,233.71909499752764
4350,0.0
4471,99516.44022253019
2,1, 1, 1, 0, 9, 0.00,60.00,Holiday
11,199443142.5975506
47,77715052.05606933
71,8346652.056069458
346,69368399.9999999
993,72641339.99999988
1017,72641339.99999988
1497,635853711.5404413
1533,0.0
1557,0.0
2228,2522597.1996441704
2366,1337256.5505344757
4114,45559918.48074973
4126,24315439.24789428
4162,14199365.105798256
4222,634516454.9899068
4235,80472.67104102357
4350,0.0
4471,923762.1900464819
2,1, 1, 1, 0,10, 0.00,60.00,Holiday
11,187698057.1686251
47,77514199.07520443
71,8145799.075204559
346,69368399.9999999
993,72641339.99999988
1017,72641339.99999988
1497,432042528.088663
1533,0.0
1557,0.0
2228,2567046.153837774
2366,1350943.8158918252
4114,34638156.55679397
4126,16580086.12876369
4162,14199365.105798256
4222,430691584.27277126
4235,50857.31092390698
4350,0.0
4471,286458.07186507168
2,1, 1, 1, 0,11, 0.00,60.00,Holiday
11,190476681.40253029
47,76602531.55735249
71,28682931.557352544
346,47919599.99999992
993,74424959.99999996
1017,74424959.99999996
1497,281444483.0310148
1533,0.0
1557,0.0
2228,5922261.113700252
2366,2053903.6008213312
4114,33292008.58271014
4126,16519577.605455207
4162,14199365.105798256
4222,279390579.4301934
4235,27186.32042028601
4350,0.0
4471,207733.8283472226
2,1, 1, 1, 0,12, 0.00,60.00,Holiday
11,187962220.39040173
47,76056925.05234933
71,28137325.052349379
346,47919599.99999992
993,74424959.99999996
1017,74424959.99999996
1497,185936442.60477997
1533,11438885.168497468
1557,11438885.168497468
2228,6047074.465457594
2366,2378554.0148726098
4114,31213767.577764024
4126,16519577.605455207
4162,14199365.105798256
4222,172119003.4214099
4235,18926.78310169171
4350,0.0
4471,200566.51172917218
2,1, 1, 1, 0,13, 0.00,60.00,Holiday
11,215923582.8225555
47,87564057.30734864
71,39644457.30734867
346,47919599.99999992
993,89913239.99999997
1017,89913239.99999997
1497,107575179.36723326
1533,11438885.168497468
1557,11438885.168497468
2228,7444225.180314021
2366,2451070.338878535
4114,30796407.086500665
4126,16519577.605455207
4162,14199365.105798256
4222,93685223.85985726
4235,7494.292290851298
4350,0.0
4471,198158.9561014349
2,1, 1, 1, 0,14, 0.00,60.00,Holiday
11,217235238.9473312
47,88823822.3885566
71,40904222.3885566
346,47919599.99999992
993,89913239.99999997
1017,89913239.99999997
1497,91515942.21972966
1533,0.0
1557,0.0
2228,7445340.729071816
2366,2469896.439789332
4114,30848248.931359799
4126,16519577.605455207
4162,14199365.105798256
4222,89046045.77994034
4235,6378.125591688696
4350,0.0
4471,198208.77275142176
2,1, 1, 1, 0,15, 0.00,60.00,Holiday
11,217380080.69548018
47,88939828.71316998
71,41020228.71316999
346,47919599.99999992
993,89913239.99999997
1017,89913239.99999997
1497,99360621.22941375
1533,0.0
1557,0.0
2228,7283808.55926469
2366,2128638.8394113488
4114,31038317.01877657
4126,16519577.605455207
4162,14199365.105798256
4222,97231982.3900024
4235,6686.953960204219
4350,0.0
4471,198199.45030884259
2,1, 1, 1, 0,16, 0.00,60.00,Holiday
11,217013892.82776866
47,89058240.98102904
71,41138640.981029059
346,47919599.99999992
993,89913239.99999997
1017,89913239.99999997
1497,114180898.28912753
1533,0.0
1557,0.0
2228,6582098.324620506
2366,2417000.1411225365
4114,31254334.45885146
4126,16519577.605455207
4162,14199365.105798256
4222,111763898.148005
4235,7819.859651638706
4350,0.0
4471,198159.20361608885
2,1, 1, 1, 0,17, 0.00,60.00,Holiday
11,218535211.21480767
47,89629699.11876148
71,41710099.11876149
346,47919599.99999992
993,89913239.99999997
1017,89913239.99999997
1497,148113542.96516813
1533,28597212.921243654
1557,28597212.921243654
2228,7419640.645778912
2366,2453687.1523809039
4114,31366427.353261994
4126,16519577.605455207
4162,14199365.105798256
4222,117062642.89154357
4235,8051.882414561567
4350,0.0
4471,198152.21459080079
2,1, 1, 1, 0,18, 0.00,60.00,Holiday
11,192618859.04165937
47,78647111.99999994
71,30727511.99999999
346,47919599.99999992
993,74424959.99999996
1017,74424959.99999996
1497,216580361.71927107
1533,28597212.921243654
1557,28597212.921243654
2228,7118599.751721427
2366,2389733.237409313
4114,32213185.4806055
4126,16519577.605455207
4162,14199365.105798256
4222,185593415.5606181
4235,16027.92988209252
4350,0.0
4471,198973.879450481
2,1, 1, 1, 0,19, 0.00,60.00,Holiday
11,242502288.60213486
47,106749035.99999982
71,15931835.999999995
346,90817199.99999984
993,101834279.99999984
1017,101834279.99999984
1497,182255287.81140975
1533,28597212.921243654
1557,28597212.921243654
2228,4741422.44326248
2366,1738705.1521877726
4114,28947385.651148425
4126,14487417.026481722
4162,14199365.105798256
4222,151919369.7379783
4235,26158.134894444207
4350,0.0
4471,204006.37282977269
2,1, 1, 1, 0,20, 0.00,60.00,Holiday
11,271576382.6499615
47,124250678.9999998
71,4835078.999999999
346,119415599.9999998
993,118816469.99999982
1017,118816469.99999982
1497,3067077.110817196
1533,0.0
1557,0.0
2228,5803812.924256199
2366,2027757.3842348718
4114,22705420.72570553
4126,8458341.339612134
4162,14199365.105798256
4222,1039319.7265823244
4235,0.0
4350,0.0
4471,0.0
2,1, 1, 1, 0,21, 0.00,60.00,Holiday
11,298908199.1876818
47,138549878.9999998
71,4835078.999999999
346,133714799.99999979
993,133115669.99999979
1017,133115669.99999979
1497,2189692.452250761
1533,0.0
1557,0.0
2228,4562227.517552939
2366,1682034.9585081067
4114,22680422.670129166
4126,8458341.339612134
4162,14199365.105798256
4222,507657.49374265459
4235,0.0
4350,0.0
4471,0.0
2,1, 1, 1, 0,22, 0.00,60.00,Holiday
11,268623944.93977496
47,124250678.9999998
71,4835078.999999999
346,119415599.9999998
993,118816469.99999982
1017,118816469.99999982
1497,2973626.13813091
1533,0.0
1557,0.0
2228,2838858.3575455315
2366,1649425.8893581879
4114,22717937.582229694
4126,8458341.339612134
4162,14199365.105798256
4222,1324200.2487727227
4235,0.0
4350,0.0
4471,0.0
2,1, 1, 1, 0,23, 0.00,60.00,Holiday
11,210792817.1418232
47,95652278.99999984
71,4835078.999999999
346,90817199.99999984
993,90218069.99999985
1017,90218069.99999985
1497,1323352.2035145646
1533,0.0
1557,0.0
2228,2264761.696413071
2366,1323352.2035145646
4114,22657706.44541039
4126,8458341.339612134
4162,14199365.105798256
4222,0.0
4235,0.0
4350,0.0
4471,0.0
2,1, 1, 1, 0,24, 0.00,60.00,Holiday
11,124330959.82855344
47,52754678.99999992
71,4835078.999999999
346,47919599.99999992
993,47320469.999999929
1017,47320469.999999929
1497,1037720.0656066944
1533,0.0
1557,0.0
2228,1598104.3831430975
2366,1037720.0656066944
4114,22657706.44541039
4126,8458341.339612134
4162,14199365.105798256
4222,0.0
4235,0.0
4350,0.0
4471,0.0
2,2, 1, 2, 0, 1, 0.00,60.00,Friday
11,66322147.26880037
47,24156278.99999996
71,4835078.999999999
346,19321199.999999968
993,18722069.99999997
1017,18722069.99999997
1497,1029851.8488894774
1533,0.0
1557,0.0
2228,786091.8233900305
2366,1029851.8488894774
4114,22657706.44541039
4126,8458341.339612134
4162,14199365.105798256
4222,0.0
4235,0.0
4350,0.0
4471,0.0
2,2, 1, 2, 0, 2, 0.00,60.00,Friday
11,66328568.97970847
47,24156278.99999996
71,4835078.999999999
346,19321199.999999968
993,18722069.99999997
1017,18722069.99999997
1497,1035033.8087506458
1533,0.0
1557,0.0
2228,792513.534298128
2366,1035033.8087506458
4114,22657706.44541039
4126,8458341.339612134
4162,14199365.105798256
4222,0.0
4235,0.0
4350,0.0
4471,0.0
2,2, 1, 2, 0, 3, 0.00,60.00,Friday
11,66328564.62824094
47,24156278.99999996
71,4835078.999999999
346,19321199.999999968
993,18722069.99999997
1017,18722069.99999997
1497,1293649.3125651866
1533,0.0
1557,0.0
2228,792509.1828305994
2366,1293649.3125651866
4114,22657706.44541039
4126,8458341.339612134
4162,14199365.105798256
4222,0.0
4235,0.0
4350,0.0
4471,0.0
2,2, 1, 2, 0, 4, 0.00,60.00,Friday
11,66342957.194966729
47,24156278.99999996
71,4835078.999999999
346,19321199.999999968
993,18722069.99999997
1017,18722069.99999997
1497,1495436.8098191983
1533,0.0
1557,0.0
2228,786042.2591737814
2366,1029249.7976506437
4114,22678565.935792999
4126,8458341.339612134
4162,14199365.105798256
4222,466187.0121685546
4235,0.0
4350,0.0
4471,0.0
2,2, 1, 2, 0, 5, 0.00,60.00,Friday
11,66371708.45287374
47,24156278.99999996
71,4835078.999999999
346,19321199.999999968
993,18722069.99999997
1017,18722069.99999997
1497,2136805.6819866367
1533,0.0
1557,0.0
2228,786094.1634521673
2366,1029277.6632405815
4114,22707265.28942163
4126,8458341.339612134
4162,14199365.105798256
4222,1107528.0187460553
4235,0.0
4350,0.0
4471,0.0
2,2, 1, 2, 0, 6, 0.00,60.00,Friday
11,127608927.30002822
47,53890838.99999992
71,5971238.999999999
346,47919599.99999992
993,47871269.999999929
1017,47871269.999999929
1497,61746720.01083659
1533,0.0
1557,0.0
2228,1138277.42735489
2366,1036316.815733889
4114,24708540.872673375
4126,10490501.918585619
4162,14199365.105798256
4222,60710403.19510269
4235,0.0
4350,0.0
4471,0.0
2,2, 1, 2, 0, 7, 0.00,60.00,Friday
11,200284101.4965316
47,80361638.99999988
71,5971238.999999999
346,74390399.99999988
993,69320069.9999999
1017,69320069.9999999
1497,734659142.2250464
1533,28597212.921243654
1557,28597212.921243654
2228,1220037.0808067409
2366,1034159.8478046667
4114,48521851.50927675
4126,23446801.652404708
4162,14199365.105798256
4222,705027769.455998
4235,72797.07811099546
4350,0.0
4471,787706.8283372644
2,2, 1, 2, 0, 8, 0.00,60.00,Friday
11,217655840.12901778
47,95736773.03424642
71,21346373.03424654
346,74390399.99999988
993,83139479.99999988
1017,83139479.99999988
1497,480172062.8094769
1533,28882321.086319496
1557,28882321.086319496
2228,2591234.39920062
2366,1686766.1492665027
4114,35881976.008512537
4126,16546661.997299726
4162,14199365.105798256
4222,449602975.5738909
4235,47226.395008225045
4350,0.0
4471,259150.29205009226
2,2, 1, 2, 0, 9, 0.00,60.00,Friday
11,274517520.75954499
47,123301880.11701077
71,48911480.11701091
346,74390399.99999988
993,112981499.99999987
1017,112981499.99999987
1497,296570613.38508006
1533,285108.16507584266
1557,285108.16507584266
2228,4653881.329950316
2366,2447173.596460705
4114,33342097.906397217
4126,16519577.605455207
4162,14199365.105798256
4222,293838331.6235435
4235,29388.66476083138
4350,0.0
4471,208772.74142590207
2,2, 1, 2, 0,10, 0.00,60.00,Friday
11,332888982.1440679
47,149050442.72124208
71,74660042.72124213
346,74390399.99999988
993,143958059.99999995
1017,143958059.99999995
1497,203508007.4152738
1533,285108.16507584266
1557,285108.16507584266
2228,6901891.76204315
2366,2929512.5823919337
4114,32763506.582916015
4126,16563993.710293638
4162,14199365.105798256
4222,200293386.66780604
4235,15694.980991934568
4350,0.0
4471,199386.09687483239
2,2, 1, 2, 0,11, 0.00,60.00,Friday
11,288781265.9952998
47,125188363.29917231
71,72246763.29917234
346,52941599.9999999
993,122509259.99999996
1017,122509259.99999996
1497,187843362.70451958
1533,513194.69713651677
1557,513194.69713651677
2228,8149527.097378786
2366,3112862.5061096206
4114,32722365.641920199
4126,16610272.6171262
4162,14199365.105798256
4222,184217305.50127346
4235,13104.334185358137
4350,0.0
4471,198645.6226432339
2,2, 1, 2, 0,12, 0.00,60.00,Friday
11,290591462.354105
47,124978294.18429598
71,72036694.18429601
346,52941599.9999999
993,122509259.99999996
1017,122509259.99999996
1497,159154286.83895476
1533,11952079.865633984
1557,11952079.865633984
2228,11187402.440634633
2366,4104861.201967534
4114,31706310.068602317
4126,16848258.039506578
4162,14199365.105798256
4222,143097345.77135325
4235,11813.444500679376
4350,0.0
4471,198382.21607143479
2,2, 1, 2, 0,13, 0.00,60.00,Friday
11,291480230.79694709
47,124361511.6195415
71,71419911.61954151
346,52941599.9999999
993,122509259.99999996
1017,122509259.99999996
1497,120972497.86429791
1533,11952079.865633984
1557,11952079.865633984
2228,13186243.577256423
2366,4562716.428736959
4114,31216720.363145606
4126,16920007.099218418
4162,14199365.105798256
4222,104457701.56992698
4235,8313.083662147594
4350,0.0
4471,198182.15334150167
2,2, 1, 2, 0,14, 0.00,60.00,Friday
11,290514697.641306
47,124626954.48958811
71,71685354.48958813
346,52941599.9999999
993,122509259.99999996
1017,122509259.99999996
1497,65877671.76618471
1533,513194.69713651677
1557,513194.69713651677
2228,11942328.346345878
2366,4206790.001909628
4114,31219499.34167328
4126,17016841.24655412
4162,14199365.105798256
4222,61157687.06713857
4235,5014.581465282972
4350,13314.028589357544
4471,198326.85364413204
2,2, 1, 2, 0,15, 0.00,60.00,Friday
11,289931274.05970218
47,124769888.82827476
71,71828288.82827477
346,52941599.9999999
993,122509259.99999996
1017,122509259.99999996
1497,42450131.73690957
1533,427662.2476137639
1557,427662.2476137639
2228,10074328.233288303
2366,3614504.493672294
4114,31678983.89603883
4126,17323259.88907595
4162,14199365.105798256
4222,38407964.9956235
4235,2413.423015265676
4350,697720.9898770683
4471,198678.68920804357
2,2, 1, 2, 0,16, 0.00,60.00,Friday
11,289644633.4846773
47,124741390.9462389
71,71799790.94623894
346,52941599.9999999
993,122509259.99999996
1017,122509259.99999996
1497,31921336.70728291
1533,427662.2476137639
1557,427662.2476137639
2228,9455271.541264276
2366,3349679.968109366
4114,32281753.343201817
4126,17943459.026070209
4162,14199365.105798256
4222,28143994.49155978
4235,1055.9289208193316
4350,456985.80904793369
4471,198915.91600359049
2,2, 1, 2, 0,17, 0.00,60.00,Friday
11,294067422.277857
47,129738908.7207265
71,76797308.72072655
346,52941599.9999999
993,122509259.99999996
1017,122509259.99999996
1497,74844846.91706327
1533,29024875.168857416
1557,29024875.168857416
2228,9538081.84655113
2366,3415765.675510025
4114,32073957.562455413
4126,17796039.542456815
4162,14199365.105798256
4222,42404206.072695817
4235,2769.2079410724475
4350,5848.283582044463
4471,198596.65660098359
2,2, 1, 2, 0,18, 0.00,60.00,Friday
11,282909828.0969979
47,123776342.99999996
71,70834742.99999997
346,52941599.9999999
993,118102859.99999997
1017,118102859.99999997
1497,140836495.9670356
1533,29024875.168857416
1557,29024875.168857416
2228,9245401.835976616
2366,3466543.082500468
4114,31578722.488626258
4126,17212548.927523003
4162,14199365.105798256
4222,108345077.71567768
4235,8312.37365292938
4350,0.0
4471,198188.39874223658
2,2, 1, 2, 0,19, 0.00,60.00,Friday
11,318490468.67472138
47,143344268.99999986
71,47505068.99999999
346,95839199.99999984
993,135564839.99999989
1017,135564839.99999989
1497,183062737.2392025
1533,28597212.921243654
1557,28597212.921243654
2228,8427914.752210783
2366,2932782.0467106366
4114,30937831.985195504
4126,16704858.43059065
4162,14199365.105798256
4222,151532742.27124823
4235,16194.730202001901
4350,0.0
4471,199418.20711326923
2,2, 1, 2, 0,20, 0.00,60.00,Friday
11,374360193.8284235
47,171942668.99999974
71,47505068.99999999
346,124437599.9999998
993,164163239.99999974
1017,164163239.99999974
1497,169673954.22640876
1533,0.0
1557,0.0
2228,7271187.55337717
2366,2521038.509896497
4114,30763108.319393815
4126,16563743.213595557
4162,14199365.105798256
4222,167152915.71651227
4235,19083.148350128944
4350,0.0
4471,200905.80730279053
2,2, 1, 2, 0,21, 0.00,60.00,Friday
11,387029719.1444617
47,180270629.9999997
71,41533829.999999988
346,138736799.9999998
993,169616699.99999974
1017,169616699.99999974
1497,194675220.00110827
1533,0.0
1557,0.0
2228,6192281.319342192
2366,2477045.7085351126
4114,30722321.038410456
4126,16519577.605455207
4162,14199365.105798256
4222,192198174.29257316
4235,23456.148369436218
4350,0.0
4471,204330.63834001809
2,2, 1, 2, 0,22, 0.00,60.00,Friday
11,305238084.4643496
47,143777915.9999998
71,19340315.999999998
346,124437599.9999998
993,132085079.9999998
1017,132085079.9999998
1497,64013375.950987789
1533,0.0
1557,0.0
2228,4650937.03859596
2366,1716434.019621989
4114,24724151.42575399
4126,10490501.918585619
4162,14199365.105798256
4222,62296941.931365799
4235,0.0
4350,0.0
4471,0.0
2,2, 1, 2, 0,23, 0.00,60.00,Friday
11,214792042.4121738
47,96788438.99999984
71,5971238.999999999
346,90817199.99999984
993,90768869.99999985
1017,90768869.99999985
1497,62782044.5659253
1533,0.0
1557,0.0
2228,2544866.387790191
2366,1616574.8127305089
4114,24689867.024383874
4126,10490501.918585619
4162,14199365.105798256
4222,61165469.753194797
4235,0.0
4350,0.0
4471,0.0
2,2, 1, 2, 0,24, 0.00,60.00,Friday
11,126390250.52860578
47,52754678.99999992
71,4835078.999999999
346,47919599.99999992
993,47320469.999999929
1017,47320469.999999929
1497,62216001.882665868
1533,0.0
1557,0.0
2228,1625234.5042219493
2366,1050532.1294710739
4114,24689867.024383874
4126,10490501.918585619
4162,14199365.105798256
4222,61165469.753194797
4235,0.0
4350,0.0
4471,0.0
2,3, 1, 3, 0, 1, 0.00,60.00,Saturday
11,68037247.89946682
47,24156278.99999996
71,4835078.999999999
346,19321199.999999968
993,18722069.99999997
1017,18722069.99999997
1497,1333302.9164860948
1533,0.0
1557,0.0
2228,2501192.454056468
2366,1333302.9164860948
4114,22657706.44541039
4126,8458341.339612134
4162,14199365.105798256
4222,0.0
4235,0.0
4350,0.0
4471,0.0
2,3, 1, 3, 0, 2, 0.00,60.00,Saturday
11,68015215.19001517
47,24156278.99999996
71,4835078.999999999
346,19321199.999999968
993,18722069.99999997
1017,18722069.99999997
1497,1326466.2988948264
1533,0.0
1557,0.0
2228,2479159.7446048224
2366,1326466.2988948264
4114,22657706.44541039
4126,8458341.339612134
4162,14199365.105798256
4222,0.0
4235,0.0
4350,0.0
4471,0.0
2,3, 1, 3, 0, 3, 0.00,60.00,Saturday
11,67389598.72286654
47,24156278.99999996
71,4835078.999999999
346,19321199.999999968
993,18722069.99999997
1017,18722069.99999997
1497,7525495.284836931
1533,0.0
1557,0.0
2228,1624853.2354600009
2366,1313149.5078323577
4114,22886396.487406587
4126,8458341.339612134
4162,14199365.105798256
4222,6212345.7770045739
4235,0.0
4350,0.0
4471,0.0
2,3, 1, 3, 0, 4, 0.00,60.00,Saturday
11,67051286.990955118
47,24156278.99999996
71,4835078.999999999
346,19321199.999999968
993,18722069.99999997
1017,18722069.99999997
1497,21461423.726081537
1533,0.0
1557,0.0
2228,799154.4516568625
2366,1039709.3990133597
4114,23373783.539298297
4126,8458341.339612134
4162,14199365.105798256
4222,20421714.327068177
4235,0.0
4350,0.0
4471,0.0
2,3, 1, 3, 0, 5, 0.00,60.00,Saturday
11,68860240.98671828
47,24156278.99999996
71,4835078.999999999
346,19321199.999999968
993,18722069.99999997
1017,18722069.99999997
1497,49713208.0194087
1533,0.0
1557,0.0
2228,1598133.4840291879
2366,1040012.9096370055
4114,24383758.502689139
4126,8458341.339612134
4162,14199365.105798256
4222,48673195.1097717
4235,0.0
4350,0.0
4471,0.0
2,3, 1, 3, 0, 6, 0.00,60.00,Saturday
11,127510904.16921452
47,52754678.99999992
71,4835078.999999999
346,47919599.99999992
993,47320469.999999929
1017,47320469.999999929
1497,116779650.81709177
1533,0.0
1557,0.0
2228,799058.1743308813
2366,1308420.2480348952
4114,26636696.994883676
4126,10490501.918585619
4162,14199365.105798256
4222,115471230.56905687
4235,0.0
4350,0.0
4471,0.0
2,3, 1, 3, 0, 7, 0.00,60.00,Saturday
11,211225969.12927745
47,80361638.99999988
71,5971238.999999999
346,74390399.99999988
993,69320069.9999999
1017,69320069.9999999
1497,1164160133.923114
1533,28597212.921243654
1557,28597212.921243654
2228,1611536.3292269305
2366,1049942.3441479754
4114,58994324.33052576
4126,20960852.54905939
4162,14199365.105798256
4222,1134512978.6577225
4235,92103.46094599011
4350,0.0
4471,846296.0085789645
2,3, 1, 3, 0, 8, 0.00,60.00,Saturday
11,206127641.64284406
47,83715038.65489565
71,9324638.654895762
346,74390399.99999988
993,73192139.99999988
1017,73192139.99999988
1497,814828712.4711855
1533,28597212.921243654
1557,28597212.921243654
2228,4520644.694582831
2366,1984340.1280815942
4114,44214195.92289429
4126,16519577.605455207
4162,14199365.105798256
4222,784247159.4218602
4235,73012.37775384427
4350,0.0
4471,412609.9927175407
2,3, 1, 3, 0, 9, 0.00,60.00,Saturday
11,236387869.18282799
47,101418989.98109964
71,27028589.98109977
346,74390399.99999988
993,90883619.99999987
1017,90883619.99999987
1497,597928217.6366687
1533,285108.16507584266
1557,285108.16507584266
2228,4696299.714929653
2366,2048167.452450525
4114,39008253.11031146
4126,16519577.605455207
4162,14199365.105798256
4222,595594942.0191424
4235,60667.01192592028
4350,0.0
4471,320039.3645614487
2,3, 1, 3, 0,10, 0.00,60.00,Saturday
11,274079831.39696219
47,118909640.10915515
71,44519240.10915526
346,74390399.99999988
993,114116039.99999988
1017,114116039.99999988
1497,409990562.44590786
1533,285108.16507584266
1557,285108.16507584266
2228,5238153.137465864
2366,2327903.3960300686
4114,35535989.81951833
4126,16563786.705361765
4162,14199365.105798256
4222,407377550.8848019
4235,39294.28596032998
4350,0.0
4471,240714.04486259575
2,3, 1, 3, 0,11, 0.00,60.00,Saturday
11,276844865.17947909
47,117683717.63091207
71,64742117.63091208
346,52941599.9999999
993,115899659.99999997
1017,115899659.99999997
1497,316932674.29503956
1533,513194.69713651677
1557,513194.69713651677
2228,8647449.723270035
2366,2800832.031310579
4114,34374703.411186527
4126,16665412.8464066
4162,14199365.105798256
4222,313618647.56659248
4235,27923.704121377283
4350,0.0
4471,211410.7099891592
2,3, 1, 3, 0,12, 0.00,60.00,Saturday
11,277739721.2140163
47,117776113.35139317
71,64834513.35139318
346,52941599.9999999
993,115899659.99999997
1017,115899659.99999997
1497,252950522.15519757
1533,11952079.865633984
1557,11952079.865633984
2228,10624301.956603878
2366,3524641.7675933346
4114,33189095.389957936
4126,16924993.965317239
4162,14199365.105798256
4222,237473800.52197025
4235,21323.044946861595
4350,26073.287703231417
4471,203154.18341132906
2,3, 1, 3, 0,13, 0.00,60.00,Saturday
11,274301399.40273258
47,113962924.48846954
71,61021324.488469559
346,52941599.9999999
993,114247259.99999997
1017,114247259.99999997
1497,208617522.97344364
1533,11952079.865633984
1557,11952079.865633984
2228,12234687.309489754
2366,3696728.6214842356
4114,32715555.248460104
4126,16994679.024167185
4162,14199365.105798256
4222,192968714.4863254
4235,17050.72592083068
4350,923840.7339977936
4471,200080.89639460445
2,3, 1, 3, 0,14, 0.00,60.00,Saturday
11,276032766.5689869
47,114095575.0810148
71,61153975.08101483
346,52941599.9999999
993,114247259.99999997
1017,114247259.99999997
1497,152971268.34478463
1533,513194.69713651677
1557,513194.69713651677
2228,12188792.813348655
2366,3711643.291614455
4114,32693580.199260206
4126,17270685.688256518
4162,14199365.105798256
4222,148746430.35603366
4235,12284.568633429053
4350,2596660.217700921
4471,198613.6890289626
2,3, 1, 3, 0,15, 0.00,60.00,Saturday
11,274488222.00566866
47,113403832.78956148
71,60462232.789561498
346,52941599.9999999
993,114247259.99999997
1017,114247259.99999997
1497,108206649.5382243
1533,427662.2476137639
1557,427662.2476137639
2228,9934881.835188292
2366,3062756.3704569858
4114,33046943.05336018
4126,17832107.750952536
4162,14199365.105798256
4222,104716230.92015353
4235,6581.362057808403
4350,3650512.865345414
4471,198210.10015564227
2,3, 1, 3, 0,16, 0.00,60.00,Saturday
11,273594192.38619419
47,113370237.3655855
71,60428637.365585509
346,52941599.9999999
993,114247259.99999997
1017,114247259.99999997
1497,93004452.18545145
1533,427662.2476137639
1557,427662.2476137639
2228,9806923.20590354
2366,3017260.8461676107
4114,33174719.985590847
4126,18214311.783221298
4162,14199365.105798256
4222,89559529.09167008
4235,4366.018699555908
4350,2792316.5073897649
4471,198369.30302504934
2,3, 1, 3, 0,17, 0.00,60.00,Saturday
11,275330969.1416228
47,118318439.76377732
71,65376839.763777349
346,52941599.9999999
993,114247259.99999997
1017,114247259.99999997
1497,129184934.11833614
1533,29024875.168857416
1557,29024875.168857416
2228,9674893.953416609
2366,3014825.546013617
4114,32656283.13792412
4126,18168680.290404709
4162,14199365.105798256
4222,97145233.40346512
4235,5454.576064004251
4350,230369.90051088809
4471,198267.80992998987
2,3, 1, 3, 0,18, 0.00,60.00,Saturday
11,266437289.96444804
47,111937382.99999996
71,64017782.99999998
346,47919599.99999992
993,113145659.99999997
1017,113145659.99999997
1497,166097622.34025658
1533,28597212.921243654
1557,28597212.921243654
2228,8871987.502435657
2366,2938306.7024589295
4114,32273550.276055576
4126,17544853.64582369
4162,14199365.105798256
4222,134562102.71655397
4235,10448.521599655938
4350,0.0
4471,198260.66435726299
2,3, 1, 3, 0,19, 0.00,60.00,Saturday
11,293918804.9578206
47,128942549.99999987
71,38125349.999999988
346,90817199.99999984
993,125066699.99999988
1017,125066699.99999988
1497,199870237.21872575
1533,28597212.921243654
1557,28597212.921243654
2228,8847483.167783685
2366,2860338.274078883
4114,30842857.927788795
4126,16520480.082893463
4162,14199365.105798256
4222,168412686.0234032
4235,18664.972815924753
4350,0.0
4471,200548.88943248706
2,3, 1, 3, 0,20, 0.00,60.00,Saturday
11,317309299.3989437
47,142745273.9999998
71,23329673.999999994
346,119415599.9999998
993,138176819.9999998
1017,138176819.9999998
1497,141359680.12359644
1533,0.0
1557,0.0
2228,7444631.056965392
2366,2368891.117599612
4114,28712958.34551223
4126,14487417.026481722
4162,14199365.105798256
4222,138990789.00599683
4235,24730.300736867837
4350,0.0
4471,204885.6957295731
2,3, 1, 3, 0,21, 0.00,60.00,Saturday
11,344402608.64961817
47,157044473.99999977
71,23329673.999999994
346,133714799.99999979
993,152476019.99999977
1017,152476019.99999977
1497,180335119.74549494
1533,0.0
1557,0.0
2228,5923551.980226429
2366,2189198.339204667
4114,28715432.212436119
4126,14487417.026481722
4162,14199365.105798256
4222,178145921.40629024
4235,31726.034868120456
4350,0.0
4471,211404.4220877771
2,3, 1, 3, 0,22, 0.00,60.00,Saturday
11,284307687.7651787
47,127949597.9999998
71,8533997.999999999
346,119415599.9999998
993,122688539.9999998
1017,122688539.9999998