Program Version,EnergyPlus, Version 9.0.1-bb7ca4f0da, YMD=2019.12.17 17:46
1,5,Environment Title[],Latitude[deg],Longitude[deg],Time Zone[],Elevation[m]
2,8,Day of Simulation[],Month[],Day of Month[],DST Indicator[1=yes 0=no],Hour[],StartMinute[],EndMinute[],DayType
3,5,Cumulative Day of Simulation[],Month[],Day of Month[],DST Indicator[1=yes 0=no],DayType  ! When Daily Report Variables Requested
4,2,Cumulative Days of Simulation[],Month[]  ! When Monthly Report Variables Requested
5,1,Cumulative Days of Simulation[] ! When Run Period Report Variables Requested
6,1,Calendar Year of Simulation[] ! When Annual Report Variables Requested
7,1,Environment,Site Outdoor Air Drybulb Temperature [C] !TimeStep
8,1,Environment,Site Outdoor Air Drybulb Temperature [C] !Hourly
End of Data Dictionary
1,RED-BLUFF_725910_CZ2010,  40.15,-122.25,  -8.00, 106.00
2,1, 1, 1, 0, 1, 0.00,15.00,Holiday
7,5.2
2,1, 1, 1, 0, 1,15.00,30.00,Holiday
7,6.4
2,1, 1, 1, 0, 1,30.00,45.00,Holiday
7,7.6000000000000009
2,1, 1, 1, 0, 1,45.00,60.00,Holiday
7,8.8
2,1, 1, 1, 0, 1, 0.00,60.00,Holiday
8,7.000000000000001
2,1, 1, 1, 0, 2, 0.00,15.00,Holiday
7,8.55
2,1, 1, 1, 0, 2,15.00,30.00,Holiday
7,8.3
2,1, 1, 1, 0, 2,30.00,45.00,Holiday
7,8.05
2,1, 1, 1, 0, 2,45.00,60.00,Holiday
7,7.8
2,1, 1, 1, 0, 2, 0.00,60.00,Holiday
8,8.175
2,1, 1, 1, 0, 3, 0.00,15.00,Holiday
7,7.8
2,1, 1, 1, 0, 3,15.00,30.00,Holiday
7,7.8
2,1, 1, 1, 0, 3,30.00,45.00,Holiday
7,7.8
2,1, 1, 1, 0, 3,45.00,60.00,Holiday
7,7.8
2,1, 1, 1, 0, 3, 0.00,60.00,Holiday
8,7.8
2,1, 1, 1, 0, 4, 0.00,15.00,Holiday
7,7.8999999999999999
2,1, 1, 1, 0, 4,15.00,30.00,Holiday
7,8.0
2,1, 1, 1, 0, 4,30.00,45.00,Holiday
7,8.1
2,1, 1, 1, 0, 4,45.00,60.00,Holiday
7,8.2
2,1, 1, 1, 0, 4, 0.00,60.00,Holiday
8,8.05
2,1, 1, 1, 0, 5, 0.00,15.00,Holiday
7,8.225
2,1, 1, 1, 0, 5,15.00,30.00,Holiday
7,8.25
2,1, 1, 1, 0, 5,30.00,45.00,Holiday
7,8.275
2,1, 1, 1, 0, 5,45.00,60.00,Holiday
7,8.3
2,1, 1, 1, 0, 5, 0.00,60.00,Holiday
8,8.2625
2,1, 1, 1, 0, 6, 0.00,15.00,Holiday
7,8.3
2,1, 1, 1, 0, 6,15.00,30.00,Holiday
7,8.3
2,1, 1, 1, 0, 6,30.00,45.00,Holiday
7,8.3
2,1, 1, 1, 0, 6,45.00,60.00,Holiday
7,8.3
2,1, 1, 1, 0, 6, 0.00,60.00,Holiday
8,8.3
2,1, 1, 1, 0, 7, 0.00,15.00,Holiday
7,8.25
2,1, 1, 1, 0, 7,15.00,30.00,Holiday
7,8.2
2,1, 1, 1, 0, 7,30.00,45.00,Holiday
7,8.149999999999999
2,1, 1, 1, 0, 7,45.00,60.00,Holiday
7,8.1
2,1, 1, 1, 0, 7, 0.00,60.00,Holiday
8,8.174999999999999
2,1, 1, 1, 0, 8, 0.00,15.00,Holiday
7,8.149999999999999
2,1, 1, 1, 0, 8,15.00,30.00,Holiday
7,8.2
2,1, 1, 1, 0, 8,30.00,45.00,Holiday
7,8.25
2,1, 1, 1, 0, 8,45.00,60.00,Holiday
7,8.3
2,1, 1, 1, 0, 8, 0.00,60.00,Holiday
8,8.225
2,1, 1, 1, 0, 9, 0.00,15.00,Holiday
7,8.450000000000001
2,1, 1, 1, 0, 9,15.00,30.00,Holiday
7,8.600000000000002
2,1, 1, 1, 0, 9,30.00,45.00,Holiday
7,8.75
2,1, 1, 1, 0, 9,45.00,60.00,Holiday
7,8.9
2,1, 1, 1, 0, 9, 0.00,60.00,Holiday
8,8.675
2,1, 1, 1, 0,10, 0.00,15.00,Holiday
7,8.925
2,1, 1, 1, 0,10,15.00,30.00,Holiday
7,8.95
2,1, 1, 1, 0,10,30.00,45.00,Holiday
7,8.975
2,1, 1, 1, 0,10,45.00,60.00,Holiday
7,9.0
2,1, 1, 1, 0,10, 0.00,60.00,Holiday
8,8.9625
2,1, 1, 1, 0,11, 0.00,15.00,Holiday
7,8.975
2,1, 1, 1, 0,11,15.00,30.00,Holiday
7,8.95
2,1, 1, 1, 0,11,30.00,45.00,Holiday
7,8.925
2,1, 1, 1, 0,11,45.00,60.00,Holiday
7,8.9
2,1, 1, 1, 0,11, 0.00,60.00,Holiday
8,8.9375
2,1, 1, 1, 0,12, 0.00,15.00,Holiday
7,9.275
2,1, 1, 1, 0,12,15.00,30.00,Holiday
7,9.65
2,1, 1, 1, 0,12,30.00,45.00,Holiday
7,10.025
2,1, 1, 1, 0,12,45.00,60.00,Holiday
7,10.4
2,1, 1, 1, 0,12, 0.00,60.00,Holiday
8,9.8375
2,1, 1, 1, 0,13, 0.00,15.00,Holiday
7,10.875
2,1, 1, 1, 0,13,15.00,30.00,Holiday
7,11.350000000000002
2,1, 1, 1, 0,13,30.00,45.00,Holiday
7,11.825000000000001
2,1, 1, 1, 0,13,45.00,60.00,Holiday
7,12.3
2,1, 1, 1, 0,13, 0.00,60.00,Holiday
8,11.587500000000003
2,1, 1, 1, 0,14, 0.00,15.00,Holiday
7,12.525000000000003
2,1, 1, 1, 0,14,15.00,30.00,Holiday
7,12.75
2,1, 1, 1, 0,14,30.00,45.00,Holiday
7,12.974999999999998
2,1, 1, 1, 0,14,45.00,60.00,Holiday
7,13.2
2,1, 1, 1, 0,14, 0.00,60.00,Holiday
8,12.8625
2,1, 1, 1, 0,15, 0.00,15.00,Holiday
7,12.95
2,1, 1, 1, 0,15,15.00,30.00,Holiday
7,12.7
2,1, 1, 1, 0,15,30.00,45.00,Holiday
7,12.45
2,1, 1, 1, 0,15,45.00,60.00,Holiday
7,12.2
2,1, 1, 1, 0,15, 0.00,60.00,Holiday
8,12.575
2,1, 1, 1, 0,16, 0.00,15.00,Holiday
7,12.174999999999999
2,1, 1, 1, 0,16,15.00,30.00,Holiday
7,12.149999999999999
2,1, 1, 1, 0,16,30.00,45.00,Holiday
7,12.125
2,1, 1, 1, 0,16,45.00,60.00,Holiday
7,12.1
2,1, 1, 1, 0,16, 0.00,60.00,Holiday
8,12.1375
2,1, 1, 1, 0,17, 0.00,15.00,Holiday
7,11.85
2,1, 1, 1, 0,17,15.00,30.00,Holiday
7,11.6
2,1, 1, 1, 0,17,30.00,45.00,Holiday
7,11.35
2,1, 1, 1, 0,17,45.00,60.00,Holiday
7,11.1
2,1, 1, 1, 0,17, 0.00,60.00,Holiday
8,11.475
2,1, 1, 1, 0,18, 0.00,15.00,Holiday
7,10.575
2,1, 1, 1, 0,18,15.00,30.00,Holiday
7,10.05
2,1, 1, 1, 0,18,30.00,45.00,Holiday
7,9.525
2,1, 1, 1, 0,18,45.00,60.00,Holiday
7,9.0
2,1, 1, 1, 0,18, 0.00,60.00,Holiday
8,9.7875
2,1, 1, 1, 0,19, 0.00,15.00,Holiday
7,8.525
2,1, 1, 1, 0,19,15.00,30.00,Holiday
7,8.05
2,1, 1, 1, 0,19,30.00,45.00,Holiday
7,7.574999999999999
2,1, 1, 1, 0,19,45.00,60.00,Holiday
7,7.1
2,1, 1, 1, 0,19, 0.00,60.00,Holiday
8,7.8125
2,1, 1, 1, 0,20, 0.00,15.00,Holiday
7,6.799999999999999
2,1, 1, 1, 0,20,15.00,30.00,Holiday
7,6.5
2,1, 1, 1, 0,20,30.00,45.00,Holiday
7,6.200000000000001
2,1, 1, 1, 0,20,45.00,60.00,Holiday
7,5.9
2,1, 1, 1, 0,20, 0.00,60.00,Holiday
8,6.35
2,1, 1, 1, 0,21, 0.00,15.00,Holiday
7,5.550000000000001
2,1, 1, 1, 0,21,15.00,30.00,Holiday
7,5.2
2,1, 1, 1, 0,21,30.00,45.00,Holiday
7,4.85
2,1, 1, 1, 0,21,45.00,60.00,Holiday
7,4.5
2,1, 1, 1, 0,21, 0.00,60.00,Holiday
8,5.025
2,1, 1, 1, 0,22, 0.00,15.00,Holiday
7,4.6
2,1, 1, 1, 0,22,15.00,30.00,Holiday
7,4.7
2,1, 1, 1, 0,22,30.00,45.00,Holiday
7,4.800000000000001
2,1, 1, 1, 0,22,45.00,60.00,Holiday
7,4.9
2,1, 1, 1, 0,22, 0.00,60.00,Holiday
8,4.75
2,1, 1, 1, 0,23, 0.00,15.00,Holiday
7,4.65
2,1, 1, 1, 0,23,15.00,30.00,Holiday
7,4.4
2,1, 1, 1, 0,23,30.00,45.00,Holiday
7,4.15
2,1, 1, 1, 0,23,45.00,60.00,Holiday
7,3.9
2,1, 1, 1, 0,23, 0.00,60.00,Holiday
8,4.275
2,1, 1, 1, 0,24, 0.00,15.00,Holiday
7,3.925
2,1, 1, 1, 0,24,15.00,30.00,Holiday
7,3.95
2,1, 1, 1, 0,24,30.00,45.00,Holiday
7,3.975
2,1, 1, 1, 0,24,45.00,60.00,Holiday
7,4.0
2,1, 1, 1, 0,24, 0.00,60.00,Holiday
8,3.9625
2,2, 1, 2, 0, 1, 0.00,15.00,Friday
7,4.075
2,2, 1, 2, 0, 1,15.00,30.00,Friday
7,4.15
2,2, 1, 2, 0, 1,30.00,45.00,Friday
7,4.225
2,2, 1, 2, 0, 1,45.00,60.00,Friday
7,4.3
2,2, 1, 2, 0, 1, 0.00,60.00,Friday
8,4.1875
2,2, 1, 2, 0, 2, 0.00,15.00,Friday
7,4.074999999999999
2,2, 1, 2, 0, 2,15.00,30.00,Friday
7,3.8499999999999998
2,2, 1, 2, 0, 2,30.00,45.00,Friday
7,3.625
2,2, 1, 2, 0, 2,45.00,60.00,Friday
7,3.4
2,2, 1, 2, 0, 2, 0.00,60.00,Friday
8,3.7375
2,2, 1, 2, 0, 3, 0.00,15.00,Friday
7,3.5999999999999998
2,2, 1, 2, 0, 3,15.00,30.00,Friday
7,3.8
2,2, 1, 2, 0, 3,30.00,45.00,Friday
7,4.0
2,2, 1, 2, 0, 3,45.00,60.00,Friday
7,4.2
2,2, 1, 2, 0, 3, 0.00,60.00,Friday
8,3.8999999999999996
2,2, 1, 2, 0, 4, 0.00,15.00,Friday
7,3.8500000000000007
2,2, 1, 2, 0, 4,15.00,30.00,Friday
7,3.5
2,2, 1, 2, 0, 4,30.00,45.00,Friday
7,3.1499999999999996
2,2, 1, 2, 0, 4,45.00,60.00,Friday
7,2.8
2,2, 1, 2, 0, 4, 0.00,60.00,Friday
8,3.325
2,2, 1, 2, 0, 5, 0.00,15.00,Friday
7,2.925
2,2, 1, 2, 0, 5,15.00,30.00,Friday
7,3.05
2,2, 1, 2, 0, 5,30.00,45.00,Friday
7,3.175
2,2, 1, 2, 0, 5,45.00,60.00,Friday
7,3.3
2,2, 1, 2, 0, 5, 0.00,60.00,Friday
8,3.1125
2,2, 1, 2, 0, 6, 0.00,15.00,Friday
7,3.7249999999999998
2,2, 1, 2, 0, 6,15.00,30.00,Friday
7,4.15
2,2, 1, 2, 0, 6,30.00,45.00,Friday
7,4.575
2,2, 1, 2, 0, 6,45.00,60.00,Friday
7,5.0
2,2, 1, 2, 0, 6, 0.00,60.00,Friday
8,4.3625
2,2, 1, 2, 0, 7, 0.00,15.00,Friday
7,5.0
2,2, 1, 2, 0, 7,15.00,30.00,Friday
7,5.0
2,2, 1, 2, 0, 7,30.00,45.00,Friday
7,5.0
2,2, 1, 2, 0, 7,45.00,60.00,Friday
7,5.0
2,2, 1, 2, 0, 7, 0.00,60.00,Friday
8,5.0
2,2, 1, 2, 0, 8, 0.00,15.00,Friday
7,5.0
2,2, 1, 2, 0, 8,15.00,30.00,Friday
7,5.0
2,2, 1, 2, 0, 8,30.00,45.00,Friday
7,5.0
2,2, 1, 2, 0, 8,45.00,60.00,Friday
7,5.0
2,2, 1, 2, 0, 8, 0.00,60.00,Friday
8,5.0
2,2, 1, 2, 0, 9, 0.00,15.00,Friday
7,5.0
2,2, 1, 2, 0, 9,15.00,30.00,Friday
7,5.0
2,2, 1, 2, 0, 9,30.00,45.00,Friday
7,5.0
2,2, 1, 2, 0, 9,45.00,60.00,Friday
7,5.0
2,2, 1, 2, 0, 9, 0.00,60.00,Friday
8,5.0
2,2, 1, 2, 0,10, 0.00,15.00,Friday
7,5.175
2,2, 1, 2, 0,10,15.00,30.00,Friday
7,5.35
2,2, 1, 2, 0,10,30.00,45.00,Friday
7,5.525
2,2, 1, 2, 0,10,45.00,60.00,Friday
7,5.7
2,2, 1, 2, 0,10, 0.00,60.00,Friday
8,5.437499999999999
2,2, 1, 2, 0,11, 0.00,15.00,Friday
7,5.675000000000001
2,2, 1, 2, 0,11,15.00,30.00,Friday
7,5.65
2,2, 1, 2, 0,11,30.00,45.00,Friday
7,5.624999999999999
2,2, 1, 2, 0,11,45.00,60.00,Friday
7,5.6
2,2, 1, 2, 0,11, 0.00,60.00,Friday
8,5.637499999999999
2,2, 1, 2, 0,12, 0.00,15.00,Friday
7,5.674999999999999
2,2, 1, 2, 0,12,15.00,30.00,Friday
7,5.75
2,2, 1, 2, 0,12,30.00,45.00,Friday
7,5.825000000000001
2,2, 1, 2, 0,12,45.00,60.00,Friday
7,5.9
2,2, 1, 2, 0,12, 0.00,60.00,Friday
8,5.7875
2,2, 1, 2, 0,13, 0.00,15.00,Friday
7,6.1000000000000009
2,2, 1, 2, 0,13,15.00,30.00,Friday
7,6.300000000000001
2,2, 1, 2, 0,13,30.00,45.00,Friday
7,6.5
2,2, 1, 2, 0,13,45.00,60.00,Friday
7,6.7
2,2, 1, 2, 0,13, 0.00,60.00,Friday
8,6.4
2,2, 1, 2, 0,14, 0.00,15.00,Friday
7,6.8500000000000009
2,2, 1, 2, 0,14,15.00,30.00,Friday
7,7.0
2,2, 1, 2, 0,14,30.00,45.00,Friday
7,7.1499999999999999
2,2, 1, 2, 0,14,45.00,60.00,Friday
7,7.3
2,2, 1, 2, 0,14, 0.00,60.00,Friday
8,7.075
2,2, 1, 2, 0,15, 0.00,15.00,Friday
7,7.449999999999999
2,2, 1, 2, 0,15,15.00,30.00,Friday
7,7.6
2,2, 1, 2, 0,15,30.00,45.00,Friday
7,7.750000000000001
2,2, 1, 2, 0,15,45.00,60.00,Friday
7,7.9
2,2, 1, 2, 0,15, 0.00,60.00,Friday
8,7.675000000000001
2,2, 1, 2, 0,16, 0.00,15.00,Friday
7,7.9750000000000009
2,2, 1, 2, 0,16,15.00,30.00,Friday
7,8.05
2,2, 1, 2, 0,16,30.00,45.00,Friday
7,8.125
2,2, 1, 2, 0,16,45.00,60.00,Friday
7,8.2
2,2, 1, 2, 0,16, 0.00,60.00,Friday
8,8.0875
2,2, 1, 2, 0,17, 0.00,15.00,Friday
7,8.225
2,2, 1, 2, 0,17,15.00,30.00,Friday
7,8.25
2,2, 1, 2, 0,17,30.00,45.00,Friday
7,8.275
2,2, 1, 2, 0,17,45.00,60.00,Friday
7,8.3
2,2, 1, 2, 0,17, 0.00,60.00,Friday
8,8.2625
2,2, 1, 2, 0,18, 0.00,15.00,Friday
7,8.225000000000002
2,2, 1, 2, 0,18,15.00,30.00,Friday
7,8.15
2,2, 1, 2, 0,18,30.00,45.00,Friday
7,8.075
2,2, 1, 2, 0,18,45.00,60.00,Friday
7,8.0
2,2, 1, 2, 0,18, 0.00,60.00,Friday
8,8.1125
2,2, 1, 2, 0,19, 0.00,15.00,Friday
7,7.975
2,2, 1, 2, 0,19,15.00,30.00,Friday
7,7.95
2,2, 1, 2, 0,19,30.00,45.00,Friday
7,7.925000000000001
2,2, 1, 2, 0,19,45.00,60.00,Friday
7,7.9
2,2, 1, 2, 0,19, 0.00,60.00,Friday
8,7.9375
2,2, 1, 2, 0,20, 0.00,15.00,Friday
7,7.175000000000001
2,2, 1, 2, 0,20,15.00,30.00,Friday
7,6.45
2,2, 1, 2, 0,20,30.00,45.00,Friday
7,5.725
2,2, 1, 2, 0,20,45.00,60.00,Friday
7,5.0
2,2, 1, 2, 0,20, 0.00,60.00,Friday
8,6.0875
2,2, 1, 2, 0,21, 0.00,15.00,Friday
7,5.0
2,2, 1, 2, 0,21,15.00,30.00,Friday
7,5.0
2,2, 1, 2, 0,21,30.00,45.00,Friday
7,5.0
2,2, 1, 2, 0,21,45.00,60.00,Friday
7,5.0
2,2, 1, 2, 0,21, 0.00,60.00,Friday
8,5.0
2,2, 1, 2, 0,22, 0.00,15.00,Friday
7,4.7
2,2, 1, 2, 0,22,15.00,30.00,Friday
7,4.4
2,2, 1, 2, 0,22,30.00,45.00,Friday
7,4.1
2,2, 1, 2, 0,22,45.00,60.00,Friday
7,3.8
2,2, 1, 2, 0,22, 0.00,60.00,Friday
8,4.25
2,2, 1, 2, 0,23, 0.00,15.00,Friday
7,3.3999999999999996
2,2, 1, 2, 0,23,15.00,30.00,Friday
7,3.0
2,2, 1, 2, 0,23,30.00,45.00,Friday
7,2.6
2,2, 1, 2, 0,23,45.00,60.00,Friday
7,2.2
2,2, 1, 2, 0,23, 0.00,60.00,Friday
8,2.8
2,2, 1, 2, 0,24, 0.00,15.00,Friday
7,2.0500000000000004
2,2, 1, 2, 0,24,15.00,30.00,Friday
7,1.9000000000000002
2,2, 1, 2, 0,24,30.00,45.00,Friday
7,1.7500000000000003
2,2, 1, 2, 0,24,45.00,60.00,Friday
7,1.6
2,2, 1, 2, 0,24, 0.00,60.00,Friday
8,1.8250000000000002
2,3, 1, 3, 0, 1, 0.00,15.00,Saturday
7,1.475
2,3, 1, 3, 0, 1,15.00,30.00,Saturday
7,1.35
2,3, 1, 3, 0, 1,30.00,45.00,Saturday
7,1.225
2,3, 1, 3, 0, 1,45.00,60.00,Saturday
7,1.1
2,3, 1, 3, 0, 1, 0.00,60.00,Saturday
8,1.2875
2,3, 1, 3, 0, 2, 0.00,15.00,Saturday
7,1.05
2,3, 1, 3, 0, 2,15.00,30.00,Saturday
7,1.0
2,3, 1, 3, 0, 2,30.00,45.00,Saturday
7,0.9500000000000001
2,3, 1, 3, 0, 2,45.00,60.00,Saturday
7,0.9
2,3, 1, 3, 0, 2, 0.00,60.00,Saturday
8,0.975
2,3, 1, 3, 0, 3, 0.00,15.00,Saturday
7,0.5
2,3, 1, 3, 0, 3,15.00,30.00,Saturday
7,0.10000000000000004
2,3, 1, 3, 0, 3,30.00,45.00,Saturday
7,-0.29999999999999996
2,3, 1, 3, 0, 3,45.00,60.00,Saturday
7,-0.7
2,3, 1, 3, 0, 3, 0.00,60.00,Saturday
8,-0.09999999999999995
2,3, 1, 3, 0, 4, 0.00,15.00,Saturday
7,-0.825
2,3, 1, 3, 0, 4,15.00,30.00,Saturday
7,-0.95
2,3, 1, 3, 0, 4,30.00,45.00,Saturday
7,-1.075
2,3, 1, 3, 0, 4,45.00,60.00,Saturday
7,-1.2
2,3, 1, 3, 0, 4, 0.00,60.00,Saturday
8,-1.0125
2,3, 1, 3, 0, 5, 0.00,15.00,Saturday
7,-1.325
2,3, 1, 3, 0, 5,15.00,30.00,Saturday
7,-1.45
2,3, 1, 3, 0, 5,30.00,45.00,Saturday
7,-1.575
2,3, 1, 3, 0, 5,45.00,60.00,Saturday
7,-1.7
2,3, 1, 3, 0, 5, 0.00,60.00,Saturday
8,-1.5125
2,3, 1, 3, 0, 6, 0.00,15.00,Saturday
7,-1.7999999999999999
2,3, 1, 3, 0, 6,15.00,30.00,Saturday
7,-1.9
2,3, 1, 3, 0, 6,30.00,45.00,Saturday
7,-2.0
2,3, 1, 3, 0, 6,45.00,60.00,Saturday
7,-2.1
2,3, 1, 3, 0, 6, 0.00,60.00,Saturday
8,-1.9499999999999998
2,3, 1, 3, 0, 7, 0.00,15.00,Saturday
7,-2.0250000000000005
2,3, 1, 3, 0, 7,15.00,30.00,Saturday
7,-1.9500000000000002
2,3, 1, 3, 0, 7,30.00,45.00,Saturday
7,-1.875
2,3, 1, 3, 0, 7,45.00,60.00,Saturday
7,-1.8
2,3, 1, 3, 0, 7, 0.00,60.00,Saturday
8,-1.9125
2,3, 1, 3, 0, 8, 0.00,15.00,Saturday
7,-1.875
2,3, 1, 3, 0, 8,15.00,30.00,Saturday
7,-1.9500000000000002
2,3, 1, 3, 0, 8,30.00,45.00,Saturday
7,-2.0250000000000005
2,3, 1, 3, 0, 8,45.00,60.00,Saturday
7,-2.1
2,3, 1, 3, 0, 8, 0.00,60.00,Saturday
8,-1.9875000000000003
2,3, 1, 3, 0, 9, 0.00,15.00,Saturday
7,-1.9500000000000002
2,3, 1, 3, 0, 9,15.00,30.00,Saturday
7,-1.8
2,3, 1, 3, 0, 9,30.00,45.00,Saturday
7,-1.65
2,3, 1, 3, 0, 9,45.00,60.00,Saturday
7,-1.5
2,3, 1, 3, 0, 9, 0.00,60.00,Saturday
8,-1.725
2,3, 1, 3, 0,10, 0.00,15.00,Saturday
7,-1.075
2,3, 1, 3, 0,10,15.00,30.00,Saturday
7,-0.65
2,3, 1, 3, 0,10,30.00,45.00,Saturday
7,-0.22499999999999999
2,3, 1, 3, 0,10,45.00,60.00,Saturday
7,0.2
2,3, 1, 3, 0,10, 0.00,60.00,Saturday
8,-0.43750000000000008
2,3, 1, 3, 0,11, 0.00,15.00,Saturday
7,0.575
2,3, 1, 3, 0,11,15.00,30.00,Saturday
7,0.95
2,3, 1, 3, 0,11,30.00,45.00,Saturday
7,1.325
2,3, 1, 3, 0,11,45.00,60.00,Saturday
7,1.7
2,3, 1, 3, 0,11, 0.00,60.00,Saturday
8,1.1375
2,3, 1, 3, 0,12, 0.00,15.00,Saturday
7,2.3
2,3, 1, 3, 0,12,15.00,30.00,Saturday
7,2.9
2,3, 1, 3, 0,12,30.00,45.00,Saturday
7,3.4999999999999997
2,3, 1, 3, 0,12,45.00,60.00,Saturday
7,4.1
2,3, 1, 3, 0,12, 0.00,60.00,Saturday
8,3.1999999999999999
2,3, 1, 3, 0,13, 0.00,15.00,Saturday
7,4.625
2,3, 1, 3, 0,13,15.00,30.00,Saturday
7,5.15
2,3, 1, 3, 0,13,30.00,45.00,Saturday
7,5.675000000000001
2,3, 1, 3, 0,13,45.00,60.00,Saturday
7,6.2
2,3, 1, 3, 0,13, 0.00,60.00,Saturday
8,5.4125000000000009
2,3, 1, 3, 0,14, 0.00,15.00,Saturday
7,6.4750000000000009
2,3, 1, 3, 0,14,15.00,30.00,Saturday
7,6.75
2,3, 1, 3, 0,14,30.00,45.00,Saturday
7,7.0249999999999999
2,3, 1, 3, 0,14,45.00,60.00,Saturday
7,7.3
2,3, 1, 3, 0,14, 0.00,60.00,Saturday
8,6.8875
2,3, 1, 3, 0,15, 0.00,15.00,Saturday
7,7.55
2,3, 1, 3, 0,15,15.00,30.00,Saturday
7,7.800000000000001
2,3, 1, 3, 0,15,30.00,45.00,Saturday
7,8.05
2,3, 1, 3, 0,15,45.00,60.00,Saturday
7,8.3
2,3, 1, 3, 0,15, 0.00,60.00,Saturday
8,7.925000000000001
2,3, 1, 3, 0,16, 0.00,15.00,Saturday
7,8.3
2,3, 1, 3, 0,16,15.00,30.00,Saturday
7,8.3
2,3, 1, 3, 0,16,30.00,45.00,Saturday
7,8.3
2,3, 1, 3, 0,16,45.00,60.00,Saturday
7,8.3
2,3, 1, 3, 0,16, 0.00,60.00,Saturday
8,8.3
2,3, 1, 3, 0,17, 0.00,15.00,Saturday
7,8.175
2,3, 1, 3, 0,17,15.00,30.00,Saturday
7,8.05
2,3, 1, 3, 0,17,30.00,45.00,Saturday
7,7.925
2,3, 1, 3, 0,17,45.00,60.00,Saturday
7,7.8
2,3, 1, 3, 0,17, 0.00,60.00,Saturday
8,7.987500000000001
2,3, 1, 3, 0,18, 0.00,15.00,Saturday
7,7.35
2,3, 1, 3, 0,18,15.00,30.00,Saturday
7,6.9
2,3, 1, 3, 0,18,30.00,45.00,Saturday
7,6.45
2,3, 1, 3, 0,18,45.00,60.00,Saturday
7,6.0
2,3, 1, 3, 0,18, 0.00,60.00,Saturday
8,6.675
2,3, 1, 3, 0,19, 0.00,15.00,Saturday
7,5.575
2,3, 1, 3, 0,19,15.00,30.00,Saturday
7,5.15
2,3, 1, 3, 0,19,30.00,45.00,Saturday
7,4.725
2,3, 1, 3, 0,19,45.00,60.00,Saturday
7,4.3
2,3, 1, 3, 0,19, 0.00,60.00,Saturday
8,4.9375
2,3, 1, 3, 0,20, 0.00,15.00,Saturday
7,4.074999999999999
2,3, 1, 3, 0,20,15.00,30.00,Saturday
7,3.8499999999999998
2,3, 1, 3, 0,20,30.00,45.00,Saturday
7,3.625
2,3, 1, 3, 0,20,45.00,60.00,Saturday
7,3.4
2,3, 1, 3, 0,20, 0.00,60.00,Saturday
8,3.7375
2,3, 1, 3, 0,21, 0.00,15.00,Saturday
7,3.4749999999999998
2,3, 1, 3, 0,21,15.00,30.00,Saturday
7,3.55
2,3, 1, 3, 0,21,30.00,45.00,Saturday
7,3.6250000000000006
2,3, 1, 3, 0,21,45.00,60.00,Saturday
7,3.7
2,3, 1, 3, 0,21, 0.00,60.00,Saturday
8,3.5875000000000005
2,3, 1, 3, 0,22, 0.00,15.00,Saturday
7,3.325
2,3, 1, 3, 0,22,15.00,30.00,Saturday
7,2.95
2,3, 1, 3, 0,22,30.00,45.00,Saturday
7,2.575
2,3, 1, 3, 0,22,45.00,60.00,Saturday
7,2.2
2,3, 1, 3, 0,22, 0.00,60.00,Saturday
8,2.7625
2,3, 1, 3, 0,23, 0.00,15.00,Saturday
7,2.1750000000000004
2,3, 1, 3, 0,23,15.00,30.00,Saturday
7,2.1500000000000005
2,3, 1, 3, 0,23,30.00,45.00,Saturday
7,2.125
2,3, 1, 3, 0,23,45.00,60.00,Saturday
7,2.1
2,3, 1, 3, 0,23, 0.00,60.00,Saturday
8,2.1375
2,3, 1, 3, 0,24, 0.00,15.00,Saturday
7,1.8250000000000002
2,3, 1, 3, 0,24,15.00,30.00,Saturday
7,1.55
2,3, 1, 3, 0,24,30.00,45.00,Saturday
7,1.275
2,3, 1, 3, 0,24,45.00,60.00,Saturday
7,1.0
2,3, 1, 3, 0,24, 0.00,60.00,Saturday
8,1.4125
2,4, 1, 4, 0, 1, 0.00,15.00,Sunday
7,1.0
2,4, 1, 4, 0, 1,15.00,30.00,Sunday
7,1.0
2,4, 1, 4, 0, 1,30.00,45.00,Sunday
7,1.0
2,4, 1, 4, 0, 1,45.00,60.00,Sunday
7,1.0
2,4, 1, 4, 0, 1, 0.00,60.00,Sunday
8,1.0
2,4, 1, 4, 0, 2, 0.00,15.00,Sunday
7,0.725
2,4, 1, 4, 0, 2,15.00,30.00,Sunday
7,0.45
2,4, 1, 4, 0, 2,30.00,45.00,Sunday
7,0.175
2,4, 1, 4, 0, 2,45.00,60.00,Sunday
7,-0.1
2,4, 1, 4, 0, 2, 0.00,60.00,Sunday
8,0.3125
2,4, 1, 4, 0, 3, 0.00,15.00,Sunday
7,-0.225
2,4, 1, 4, 0, 3,15.00,30.00,Sunday
7,-0.35
2,4, 1, 4, 0, 3,30.00,45.00,Sunday
7,-0.475
2,4, 1, 4, 0, 3,45.00,60.00,Sunday
7,-0.6
2,4, 1, 4, 0, 3, 0.00,60.00,Sunday
8,-0.4125
2,4, 1, 4, 0, 4, 0.00,15.00,Sunday
7,-0.725
2,4, 1, 4, 0, 4,15.00,30.00,Sunday
7,-0.8500000000000001
2,4, 1, 4, 0, 4,30.00,45.00,Sunday
7,-0.9750000000000001
2,4, 1, 4, 0, 4,45.00,60.00,Sunday
7,-1.1
2,4, 1, 4, 0, 4, 0.00,60.00,Sunday
8,-0.9125000000000001
2,4, 1, 4, 0, 5, 0.00,15.00,Sunday
7,-0.9750000000000001
2,4, 1, 4, 0, 5,15.00,30.00,Sunday
7,-0.8500000000000001
2,4, 1, 4, 0, 5,30.00,45.00,Sunday
7,-0.725
2,4, 1, 4, 0, 5,45.00,60.00,Sunday
7,-0.6
2,4, 1, 4, 0, 5, 0.00,60.00,Sunday
8,-0.7875000000000001
2,4, 1, 4, 0, 6, 0.00,15.00,Sunday
7,-0.44999999999999998
2,4, 1, 4, 0, 6,15.00,30.00,Sunday
7,-0.3
2,4, 1, 4, 0, 6,30.00,45.00,Sunday
7,-0.15
2,4, 1, 4, 0, 6,45.00,60.00,Sunday
7,0.0
2,4, 1, 4, 0, 6, 0.00,60.00,Sunday
8,-0.225
2,4, 1, 4, 0, 7, 0.00,15.00,Sunday
7,0.0
2,4, 1, 4, 0, 7,15.00,30.00,Sunday
7,0.0
2,4, 1, 4, 0, 7,30.00,45.00,Sunday
7,0.0
2,4, 1, 4, 0, 7,45.00,60.00,Sunday
7,0.0
2,4, 1, 4, 0, 7, 0.00,60.00,Sunday
8,0.0
2,4, 1, 4, 0, 8, 0.00,15.00,Sunday
7,0.025
2,4, 1, 4, 0, 8,15.00,30.00,Sunday
7,0.05
2,4, 1, 4, 0, 8,30.00,45.00,Sunday
7,0.07500000000000001
2,4, 1, 4, 0, 8,45.00,60.00,Sunday
7,0.1
2,4, 1, 4, 0, 8, 0.00,60.00,Sunday
8,0.0625
2,4, 1, 4, 0, 9, 0.00,15.00,Sunday
7,0.25
2,4, 1, 4, 0, 9,15.00,30.00,Sunday
7,0.39999999999999999
2,4, 1, 4, 0, 9,30.00,45.00,Sunday
7,0.5499999999999999
2,4, 1, 4, 0, 9,45.00,60.00,Sunday
7,0.7
2,4, 1, 4, 0, 9, 0.00,60.00,Sunday
8,0.4749999999999999
2,4, 1, 4, 0,10, 0.00,15.00,Sunday
7,0.9749999999999999
2,4, 1, 4, 0,10,15.00,30.00,Sunday
7,1.25
2,4, 1, 4, 0,10,30.00,45.00,Sunday
7,1.5250000000000002
2,4, 1, 4, 0,10,45.00,60.00,Sunday
7,1.8
2,4, 1, 4, 0,10, 0.00,60.00,Sunday
8,1.3875
2,4, 1, 4, 0,11, 0.00,15.00,Sunday
7,2.175
2,4, 1, 4, 0,11,15.00,30.00,Sunday
7,2.55
2,4, 1, 4, 0,11,30.00,45.00,Sunday
7,2.925
2,4, 1, 4, 0,11,45.00,60.00,Sunday
7,3.3
2,4, 1, 4, 0,11, 0.00,60.00,Sunday
8,2.7375
2,4, 1, 4, 0,12, 0.00,15.00,Sunday
7,3.7499999999999997
2,4, 1, 4, 0,12,15.00,30.00,Sunday
7,4.199999999999999
2,4, 1, 4, 0,12,30.00,45.00,Sunday
7,4.6499999999999999
2,4, 1, 4, 0,12,45.00,60.00,Sunday
7,5.1
2,4, 1, 4, 0,12, 0.00,60.00,Sunday
8,4.424999999999999
2,4, 1, 4, 0,13, 0.00,15.00,Sunday
7,5.25
2,4, 1, 4, 0,13,15.00,30.00,Sunday
7,5.4
2,4, 1, 4, 0,13,30.00,45.00,Sunday
7,5.550000000000001
2,4, 1, 4, 0,13,45.00,60.00,Sunday
7,5.7
2,4, 1, 4, 0,13, 0.00,60.00,Sunday
8,5.4750000000000009
2,4, 1, 4, 0,14, 0.00,15.00,Sunday
7,5.95
2,4, 1, 4, 0,14,15.00,30.00,Sunday
7,6.2
2,4, 1, 4, 0,14,30.00,45.00,Sunday
7,6.45
2,4, 1, 4, 0,14,45.00,60.00,Sunday
7,6.7
2,4, 1, 4, 0,14, 0.00,60.00,Sunday
8,6.325
2,4, 1, 4, 0,15, 0.00,15.00,Sunday
7,6.8500000000000009
2,4, 1, 4, 0,15,15.00,30.00,Sunday
7,7.0
2,4, 1, 4, 0,15,30.00,45.00,Sunday
7,7.1499999999999999
2,4, 1, 4, 0,15,45.00,60.00,Sunday
7,7.3
2,4, 1, 4, 0,15, 0.00,60.00,Sunday
8,7.075
2,4, 1, 4, 0,16, 0.00,15.00,Sunday
7,7.425
2,4, 1, 4, 0,16,15.00,30.00,Sunday
7,7.55
2,4, 1, 4, 0,16,30.00,45.00,Sunday
7,7.675
2,4, 1, 4, 0,16,45.00,60.00,Sunday
7,7.8
2,4, 1, 4, 0,16, 0.00,60.00,Sunday
8,7.6125
2,4, 1, 4, 0,17, 0.00,15.00,Sunday
7,7.824999999999999
2,4, 1, 4, 0,17,15.00,30.00,Sunday
7,7.85
2,4, 1, 4, 0,17,30.00,45.00,Sunday
7,7.875000000000001
2,4, 1, 4, 0,17,45.00,60.00,Sunday
7,7.9
2,4, 1, 4, 0,17, 0.00,60.00,Sunday
8,7.862500000000001
2,4, 1, 4, 0,18, 0.00,15.00,Sunday
7,7.7250000000000009
2,4, 1, 4, 0,18,15.00,30.00,Sunday
7,7.550000000000001
2,4, 1, 4, 0,18,30.00,45.00,Sunday
7,7.375
2,4, 1, 4, 0,18,45.00,60.00,Sunday
7,7.2
2,4, 1, 4, 0,18, 0.00,60.00,Sunday
8,7.4625
2,4, 1, 4, 0,19, 0.00,15.00,Sunday
7,7.0
2,4, 1, 4, 0,19,15.00,30.00,Sunday
7,6.800000000000001
2,4, 1, 4, 0,19,30.00,45.00,Sunday
7,6.6000000000000009
2,4, 1, 4, 0,19,45.00,60.00,Sunday
7,6.4
2,4, 1, 4, 0,19, 0.00,60.00,Sunday
8,6.700000000000001
2,4, 1, 4, 0,20, 0.00,15.00,Sunday
7,5.7250000000000009
2,4, 1, 4, 0,20,15.00,30.00,Sunday
7,5.050000000000001
2,4, 1, 4, 0,20,30.00,45.00,Sunday
7,4.375
2,4, 1, 4, 0,20,45.00,60.00,Sunday
7,3.7
2,4, 1, 4, 0,20, 0.00,60.00,Sunday
8,4.7125
2,4, 1, 4, 0,21, 0.00,15.00,Sunday
7,3.1750000000000004
2,4, 1, 4, 0,21,15.00,30.00,Sunday
7,2.6500000000000005
2,4, 1, 4, 0,21,30.00,45.00,Sunday
7,2.125
2,4, 1, 4, 0,21,45.00,60.00,Sunday
7,1.6
2,4, 1, 4, 0,21, 0.00,60.00,Sunday
8,2.3875
2,4, 1, 4, 0,22, 0.00,15.00,Sunday
7,1.35
2,4, 1, 4, 0,22,15.00,30.00,Sunday
7,1.1
2,4, 1, 4, 0,22,30.00,45.00,Sunday
7,0.85
2,4, 1, 4, 0,22,45.00,60.00,Sunday
7,0.6
2,4, 1, 4, 0,22, 0.00,60.00,Sunday
8,0.9750000000000001
2,4, 1, 4, 0,23, 0.00,15.00,Sunday
7,0.625
2,4, 1, 4, 0,23,15.00,30.00,Sunday
7,0.6499999999999999
2,4, 1, 4, 0,23,30.00,45.00,Sunday
7,0.6749999999999999
2,4, 1, 4, 0,23,45.00,60.00,Sunday
7,0.7
2,4, 1, 4, 0,23, 0.00,60.00,Sunday
8,0.6624999999999999
2,4, 1, 4, 0,24, 0.00,15.00,Sunday
7,1.025
2,4, 1, 4, 0,24,15.00,30.00,Sunday
7,1.35
2,4, 1, 4, 0,24,30.00,45.00,Sunday
7,1.675
2,4, 1, 4, 0,24,45.00,60.00,Sunday
7,2.0
2,4, 1, 4, 0,24, 0.00,60.00,Sunday
8,1.5125
2,5, 1, 5, 0, 1, 0.00,15.00,Monday
7,2.05
2,5, 1, 5, 0, 1,15.00,30.00,Monday
7,2.1
2,5, 1, 5, 0, 1,30.00,45.00,Monday
7,2.1500000000000005
2,5, 1, 5, 0, 1,45.00,60.00,Monday
7,2.2
2,5, 1, 5, 0, 1, 0.00,60.00,Monday
8,2.125
2,5, 1, 5, 0, 2, 0.00,15.00,Monday
7,2.1750000000000004
2,5, 1, 5, 0, 2,15.00,30.00,Monday
7,2.1500000000000005
2,5, 1, 5, 0, 2,30.00,45.00,Monday
7,2.125
2,5, 1, 5, 0, 2,45.00,60.00,Monday
7,2.1
2,5, 1, 5, 0, 2, 0.00,60.00,Monday
8,2.1375
2,5, 1, 5, 0, 3, 0.00,15.00,Monday
7,1.85
2,5, 1, 5, 0, 3,15.00,30.00,Monday
7,1.6
2,5, 1, 5, 0, 3,30.00,45.00,Monday
7,1.35
2,5, 1, 5, 0, 3,45.00,60.00,Monday
7,1.1
2,5, 1, 5, 0, 3, 0.00,60.00,Monday
8,1.475
2,5, 1, 5, 0, 4, 0.00,15.00,Monday
7,1.1
2,5, 1, 5, 0, 4,15.00,30.00,Monday
7,1.1
2,5, 1, 5, 0, 4,30.00,45.00,Monday
7,1.1
2,5, 1, 5, 0, 4,45.00,60.00,Monday
7,1.1
2,5, 1, 5, 0, 4, 0.00,60.00,Monday
8,1.1
2,5, 1, 5, 0, 5, 0.00,15.00,Monday
7,1.1
2,5, 1, 5, 0, 5,15.00,30.00,Monday
7,1.1
2,5, 1, 5, 0, 5,30.00,45.00,Monday
7,1.1
2,5, 1, 5, 0, 5,45.00,60.00,Monday
7,1.1
2,5, 1, 5, 0, 5, 0.00,60.00,Monday
8,1.1
2,5, 1, 5, 0, 6, 0.00,15.00,Monday
7,0.9500000000000001
2,5, 1, 5, 0, 6,15.00,30.00,Monday
7,0.8
2,5, 1, 5, 0, 6,30.00,45.00,Monday
7,0.65
2,5, 1, 5, 0, 6,45.00,60.00,Monday
7,0.5
2,5, 1, 5, 0, 6, 0.00,60.00,Monday
8,0.725
2,5, 1, 5, 0, 7, 0.00,15.00,Monday
7,0.375
2,5, 1, 5, 0, 7,15.00,30.00,Monday
7,0.25
2,5, 1, 5, 0, 7,30.00,45.00,Monday
7,0.125
2,5, 1, 5, 0, 7,45.00,60.00,Monday
7,0.0
2,5, 1, 5, 0, 7, 0.00,60.00,Monday
8,0.1875
2,5, 1, 5, 0, 8, 0.00,15.00,Monday
7,0.0
2,5, 1, 5, 0, 8,15.00,30.00,Monday
7,0.0
2,5, 1, 5, 0, 8,30.00,45.00,Monday
7,0.0
2,5, 1, 5, 0, 8,45.00,60.00,Monday
7,0.0
2,5, 1, 5, 0, 8, 0.00,60.00,Monday
8,0.0
2,5, 1, 5, 0, 9, 0.00,15.00,Monday
7,0.075
2,5, 1, 5, 0, 9,15.00,30.00,Monday
7,0.15
2,5, 1, 5, 0, 9,30.00,45.00,Monday
7,0.22499999999999999
2,5, 1, 5, 0, 9,45.00,60.00,Monday
7,0.3
2,5, 1, 5, 0, 9, 0.00,60.00,Monday
8,0.1875
2,5, 1, 5, 0,10, 0.00,15.00,Monday
7,1.0
2,5, 1, 5, 0,10,15.00,30.00,Monday
7,1.7
2,5, 1, 5, 0,10,30.00,45.00,Monday
7,2.4000000000000005
2,5, 1, 5, 0,10,45.00,60.00,Monday
7,3.1
2,5, 1, 5, 0,10, 0.00,60.00,Monday
8,2.0500000000000004
2,5, 1, 5, 0,11, 0.00,15.00,Monday
7,3.725
2,5, 1, 5, 0,11,15.00,30.00,Monday
7,4.35
2,5, 1, 5, 0,11,30.00,45.00,Monday
7,4.975
2,5, 1, 5, 0,11,45.00,60.00,Monday
7,5.6
2,5, 1, 5, 0,11, 0.00,60.00,Monday
8,4.6625
2,5, 1, 5, 0,12, 0.00,15.00,Monday
7,5.949999999999999
2,5, 1, 5, 0,12,15.00,30.00,Monday
7,6.3
2,5, 1, 5, 0,12,30.00,45.00,Monday
7,6.65
2,5, 1, 5, 0,12,45.00,60.00,Monday
7,7.0
2,5, 1, 5, 0,12, 0.00,60.00,Monday
8,6.475
2,5, 1, 5, 0,13, 0.00,15.00,Monday
7,7.65
2,5, 1, 5, 0,13,15.00,30.00,Monday
7,8.3
2,5, 1, 5, 0,13,30.00,45.00,Monday
7,8.95
2,5, 1, 5, 0,13,45.00,60.00,Monday
7,9.6
2,5, 1, 5, 0,13, 0.00,60.00,Monday
8,8.625
2,5, 1, 5, 0,14, 0.00,15.00,Monday
7,9.95
2,5, 1, 5, 0,14,15.00,30.00,Monday
7,10.3
2,5, 1, 5, 0,14,30.00,45.00,Monday
7,10.65
2,5, 1, 5, 0,14,45.00,60.00,Monday
7,11.0
2,5, 1, 5, 0,14, 0.00,60.00,Monday
8,10.475
2,5, 1, 5, 0,15, 0.00,15.00,Monday
7,11.175
2,5, 1, 5, 0,15,15.00,30.00,Monday
7,11.35
2,5, 1, 5, 0,15,30.00,45.00,Monday
7,11.524999999999999
2,5, 1, 5, 0,15,45.00,60.00,Monday
7,11.7
2,5, 1, 5, 0,15, 0.00,60.00,Monday
8,11.4375
2,5, 1, 5, 0,16, 0.00,15.00,Monday
7,11.474999999999998
2,5, 1, 5, 0,16,15.00,30.00,Monday
7,11.25
2,5, 1, 5, 0,16,30.00,45.00,Monday
7,11.025000000000003
2,5, 1, 5, 0,16,45.00,60.00,Monday
7,10.8
2,5, 1, 5, 0,16, 0.00,60.00,Monday
8,11.1375
2,5, 1, 5, 0,17, 0.00,15.00,Monday
7,10.600000000000002
2,5, 1, 5, 0,17,15.00,30.00,Monday
7,10.4
2,5, 1, 5, 0,17,30.00,45.00,Monday
7,10.2
2,5, 1, 5, 0,17,45.00,60.00,Monday
7,10.0
2,5, 1, 5, 0,17, 0.00,60.00,Monday
8,10.3
2,5, 1, 5, 0,18, 0.00,15.00,Monday
7,9.925
2,5, 1, 5, 0,18,15.00,30.00,Monday
7,9.85
2,5, 1, 5, 0,18,30.00,45.00,Monday
7,9.774999999999999
2,5, 1, 5, 0,18,45.00,60.00,Monday
7,9.7
2,5, 1, 5, 0,18, 0.00,60.00,Monday
8,9.8125
2,5, 1, 5, 0,19, 0.00,15.00,Monday
7,9.575
2,5, 1, 5, 0,19,15.00,30.00,Monday
7,9.45
2,5, 1, 5, 0,19,30.00,45.00,Monday
7,9.325
2,5, 1, 5, 0,19,45.00,60.00,Monday
7,9.2
2,5, 1, 5, 0,19, 0.00,60.00,Monday
8,9.3875
2,5, 1, 5, 0,20, 0.00,15.00,Monday
7,8.7
2,5, 1, 5, 0,20,15.00,30.00,Monday
7,8.2
2,5, 1, 5, 0,20,30.00,45.00,Monday
7,7.7
2,5, 1, 5, 0,20,45.00,60.00,Monday
7,7.2
2,5, 1, 5, 0,20, 0.00,60.00,Monday
8,7.949999999999999
2,5, 1, 5, 0,21, 0.00,15.00,Monday
7,7.050000000000001
2,5, 1, 5, 0,21,15.00,30.00,Monday
7,6.9
2,5, 1, 5, 0,21,30.00,45.00,Monday
7,6.749999999999999
2,5, 1, 5, 0,21,45.00,60.00,Monday
7,6.6
2,5, 1, 5, 0,21, 0.00,60.00,Monday
8,6.824999999999999
2,5, 1, 5, 0,22, 0.00,15.00,Monday
7,6.499999999999999
2,5, 1, 5, 0,22,15.00,30.00,Monday
7,6.4
2,5, 1, 5, 0,22,30.00,45.00,Monday
7,6.300000000000001
2,5, 1, 5, 0,22,45.00,60.00,Monday
7,6.2
2,5, 1, 5, 0,22, 0.00,60.00,Monday
8,6.35
2,5, 1, 5, 0,23, 0.00,15.00,Monday
7,6.300000000000001
2,5, 1, 5, 0,23,15.00,30.00,Monday
7,6.4
2,5, 1, 5, 0,23,30.00,45.00,Monday
7,6.499999999999999
2,5, 1, 5, 0,23,45.00,60.00,Monday
7,6.6
2,5, 1, 5, 0,23, 0.00,60.00,Monday
8,6.449999999999999
2,5, 1, 5, 0,24, 0.00,15.00,Monday
7,6.475
2,5, 1, 5, 0,24,15.00,30.00,Monday
7,6.35
2,5, 1, 5, 0,24,30.00,45.00,Monday
7,6.225
2,5, 1, 5, 0,24,45.00,60.00,Monday
7,6.1
2,5, 1, 5, 0,24, 0.00,60.00,Monday
8,6.2875
2,6, 1, 6, 0, 1, 0.00,15.00,Tuesday
7,6.249999999999999
2,6, 1, 6, 0, 1,15.00,30.00,Tuesday
7,6.4
2,6, 1, 6, 0, 1,30.00,45.00,Tuesday
7,6.550000000000001
2,6, 1, 6, 0, 1,45.00,60.00,Tuesday
7,6.7
2,6, 1, 6, 0, 1, 0.00,60.00,Tuesday
8,6.475
2,6, 1, 6, 0, 2, 0.00,15.00,Tuesday
7,6.775
2,6, 1, 6, 0, 2,15.00,30.00,Tuesday
7,6.85
2,6, 1, 6, 0, 2,30.00,45.00,Tuesday
7,6.925
2,6, 1, 6, 0, 2,45.00,60.00,Tuesday
7,7.0
2,6, 1, 6, 0, 2, 0.00,60.00,Tuesday
8,6.8875
2,6, 1, 6, 0, 3, 0.00,15.00,Tuesday
7,6.65
2,6, 1, 6, 0, 3,15.00,30.00,Tuesday
7,6.3
2,6, 1, 6, 0, 3,30.00,45.00,Tuesday
7,5.949999999999999
2,6, 1, 6, 0, 3,45.00,60.00,Tuesday
7,5.6
2,6, 1, 6, 0, 3, 0.00,60.00,Tuesday
8,6.125
2,6, 1, 6, 0, 4, 0.00,15.00,Tuesday
7,5.6
2,6, 1, 6, 0, 4,15.00,30.00,Tuesday
7,5.6
2,6, 1, 6, 0, 4,30.00,45.00,Tuesday
7,5.6
2,6, 1, 6, 0, 4,45.00,60.00,Tuesday
7,5.6
2,6, 1, 6, 0, 4, 0.00,60.00,Tuesday
8,5.6
2,6, 1, 6, 0, 5, 0.00,15.00,Tuesday
7,5.725
2,6, 1, 6, 0, 5,15.00,30.00,Tuesday
7,5.85
2,6, 1, 6, 0, 5,30.00,45.00,Tuesday
7,5.975
2,6, 1, 6, 0, 5,45.00,60.00,Tuesday
7,6.1
2,6, 1, 6, 0, 5, 0.00,60.00,Tuesday
8,5.9125
2,6, 1, 6, 0, 6, 0.00,15.00,Tuesday
7,6.1
2,6, 1, 6, 0, 6,15.00,30.00,Tuesday
7,6.1
2,6, 1, 6, 0, 6,30.00,45.00,Tuesday
7,6.1
2,6, 1, 6, 0, 6,45.00,60.00,Tuesday
7,6.1
2,6, 1, 6, 0, 6, 0.00,60.00,Tuesday
8,6.1
2,6, 1, 6, 0, 7, 0.00,15.00,Tuesday
7,6.1
2,6, 1, 6, 0, 7,15.00,30.00,Tuesday
7,6.1
2,6, 1, 6, 0, 7,30.00,45.00,Tuesday
7,6.1
2,6, 1, 6, 0, 7,45.00,60.00,Tuesday
7,6.1
2,6, 1, 6, 0, 7, 0.00,60.00,Tuesday
8,6.1
2,6, 1, 6, 0, 8, 0.00,15.00,Tuesday
7,5.949999999999999