Program Version,EnergyPlus, Version 9.0.1-bb7ca4f0da, YMD=2019.12.18 16:59
1,5,Environment Title[],Latitude[deg],Longitude[deg],Time Zone[],Elevation[m]
2,8,Day of Simulation[],Month[],Day of Month[],DST Indicator[1=yes 0=no],Hour[],StartMinute[],EndMinute[],DayType
3,5,Cumulative Day of Simulation[],Month[],Day of Month[],DST Indicator[1=yes 0=no],DayType  ! When Daily Meters Requested
4,2,Cumulative Days of Simulation[],Month[]  ! When Monthly Meters Requested
5,1,Cumulative Days of Simulation[] ! When Run Period Meters Requested
6,1,Calendar Year of Simulation[] ! When Annual Meters Requested
4244,1,Heating:Electricity [J] !Hourly
1497,1,Gas:Facility [J] !Hourly
4122,1,Fans:Electricity [J] !Hourly
1533,1,InteriorEquipment:Gas [J] !Hourly
4355,1,Cooling:Electricity [J] !Hourly
11,1,Electricity:Facility [J] !Hourly
47,1,InteriorLights:Electricity [J] !Hourly
1017,1,Receptacle:InteriorEquipment:Electricity [J] !Hourly
993,1,InteriorEquipment:Electricity [J] !Hourly
4480,1,Pumps:Electricity [J] !Hourly
2228,1,WaterSystems:Electricity [J] !Hourly
4231,1,Heating:Gas [J] !Hourly
2366,1,WaterSystems:Gas [J] !Hourly
1557,1,Receptacle:InteriorEquipment:Gas [J] !Hourly
71,1,ComplianceLtg:InteriorLights:Electricity [J] !Hourly
346,1,NonComplianceLtg:InteriorLights:Electricity [J] !Hourly
4134,1,General:Fans:Electricity [J] !Hourly
4171,1,ProcessMotors:Fans:Electricity [J] !Hourly
End of Data Dictionary
1,RED-BLUFF_725910_CZ2010,  40.15,-122.25,  -8.00, 106.00
2,1, 1, 1, 0, 1, 0.00,60.00,Holiday
11,55711413.02478726
47,24156278.99999996
71,4835078.999999999
346,19321199.999999968
993,18722069.99999997
1017,18722069.99999997
1497,1043140.1319253664
1533,0.0
1557,0.0
2228,799927.0611715533
2366,1043140.1319253664
4122,12033136.96361573
4134,8488078.333418433
4171,3545058.630197298
4231,0.0
4244,0.0
4355,0.0
4480,0.0
2,1, 1, 1, 0, 2, 0.00,60.00,Holiday
11,56511214.033019009
47,24156278.99999996
71,4835078.999999999
346,19321199.999999968
993,18722069.99999997
1017,18722069.99999997
1497,1043226.8165705451
1533,0.0
1557,0.0
2228,1599728.0694033004
2366,1043226.8165705451
4122,12033136.96361573
4134,8488078.333418433
4171,3545058.6301972984
4231,0.0
4244,0.0
4355,0.0
4480,0.0
2,1, 1, 1, 0, 3, 0.00,60.00,Holiday
11,56519197.312272127
47,24156278.99999996
71,4835078.999999999
346,19321199.999999968
993,18722069.99999997
1017,18722069.99999997
1497,1489573.9853030963
1533,0.0
1557,0.0
2228,1599559.0722448989
2366,1303934.0505240716
4122,12041289.24002726
4134,8488078.333418433
4171,3545058.6301972984
4231,185639.93477902475
4244,0.0
4355,0.0
4480,0.0
2,1, 1, 1, 0, 4, 0.00,60.00,Holiday
11,56576457.95846866
47,24156278.99999996
71,4835078.999999999
346,19321199.999999968
993,18722069.99999997
1017,18722069.99999997
1497,2946152.6496175325
1533,0.0
1557,0.0
2228,1586210.7156647486
2366,1037772.0322006581
4122,12111898.242803935
4134,8488078.333418433
4171,3545058.6301972984
4231,1908380.617416874
4244,0.0
4355,0.0
4480,0.0
2,1, 1, 1, 0, 5, 0.00,60.00,Holiday
11,55880535.36564328
47,24156278.99999996
71,4835078.999999999
346,19321199.999999968
993,18722069.99999997
1017,18722069.99999997
1497,5345469.029196352
1533,0.0
1557,0.0
2228,793061.0219254147
2366,1038020.5037619025
4122,12209125.343717888
4134,8488078.333418433
4171,3545058.6301972984
4231,4307448.525434449
4244,0.0
4355,0.0
4480,0.0
2,1, 1, 1, 0, 6, 0.00,60.00,Holiday
11,117472924.49682105
47,52754678.99999992
71,4835078.999999999
346,47919599.99999992
993,47320469.999999929
1017,47320469.999999929
1497,42995694.4168109
1533,0.0
1557,0.0
2228,1586423.9889163068
2366,1305979.154743155
4122,15772353.663339487
4134,12138094.927746177
4171,3545058.6301972984
4231,41689715.26206774
4244,7082.313569205797
4355,0.0
4480,31915.530996076748
2,1, 1, 1, 0, 7, 0.00,60.00,Holiday
11,181996963.0972846
47,74203478.99999988
71,4835078.999999999
346,69368399.9999999
993,68769269.9999999
1017,68769269.9999999
1497,507768878.7521914
1533,28597212.921243654
1557,28597212.921243654
2228,1599525.2461789894
2366,1043223.6336774388
4122,37385627.354633647
4134,15414878.962894954
4171,3545058.630197298
4231,478128442.1972703
4244,7363.315832196395
4355,0.0
4480,31698.180639913346
2,1, 1, 1, 0, 8, 0.00,60.00,Holiday
11,174203373.54647018
47,74194640.6233617
71,4826240.62336182
346,69368399.9999999
993,68769269.9999999
1017,68769269.9999999
1497,338739535.7315357
1533,28597212.921243654
1557,28597212.921243654
2228,2202644.5333458969
2366,1323918.4870637884
4122,28997725.09451543
4134,14185663.35417949
4171,3545058.6301972984
4231,308818404.32322826
4244,7430.968091544658
4355,0.0
4480,31662.327155580748
2,1, 1, 1, 0, 9, 0.00,60.00,Holiday
11,189883568.26530654
47,77568906.11835276
71,8200506.118352879
346,69368399.9999999
993,72641339.99999988
1017,72641339.99999988
1497,609396486.9121821
1533,0.0
1557,0.0
2228,2494473.4293785125
2366,1337604.8742127848
4122,36060096.965473268
4134,24227848.967449096
4171,3545058.6301972984
4231,608058882.0379694
4244,91460.94309626891
4355,0.0
4480,1027290.8090057972
2,1, 1, 1, 0,10, 0.00,60.00,Holiday
11,178435176.66145275
47,77226858.74107929
71,7858458.741079415
346,69368399.9999999
993,72641339.99999988
1017,72641339.99999988
1497,421082683.1452929
1533,0.0
1557,0.0
2228,2828037.1311655479
2366,1351634.1880087543
4122,25501103.54520911
4134,16533468.707071092
4171,3545058.6301972984
4231,419731048.95728418
4244,61011.34759564766
4355,0.0
4480,176825.8964031445
2,1, 1, 1, 0,11, 0.00,60.00,Holiday
11,180944189.36478613
47,75778576.76311159
71,27858976.76311164
346,47919599.99999992
993,74424959.99999996
1017,74424959.99999996
1497,337446360.0223694
1533,0.0
1557,0.0
2228,5890892.265217028
2366,2188399.9497769747
4122,24752294.500931756
4134,16482452.608216165
4171,3545058.6301972984
4231,335257960.0725924
4244,43357.59409679433
4355,0.0
4480,54108.24142896506
2,1, 1, 1, 0,12, 0.00,60.00,Holiday
11,179318184.1378134
47,75866246.57962027
71,27946646.579620337
346,47919599.99999992
993,74424959.99999996
1017,74424959.99999996
1497,271631826.930637
1533,11438885.168497468
1557,11438885.168497468
2228,6015516.246287792
2366,2247025.6641974088
4122,22938568.31126333
4134,16482452.608216165
4171,3545058.6301972984
4231,257945916.0979421
4244,35258.42665478363
4355,0.0
4480,37634.573987211355
2,1, 1, 1, 0,13, 0.00,60.00,Holiday
11,204632147.59248296
47,85906814.08418158
71,37987214.08418159
346,47919599.99999992
993,89913239.99999997
1017,89913239.99999997
1497,145737708.74246813
1533,11438885.168497468
1557,11438885.168497468
2228,7410206.075069511
2366,2454827.985095953
4122,21354807.045302355
4134,16482452.608216165
4171,3545058.6301972984
4231,131843995.58887469
4244,17671.296855086017
4355,0.0
4480,29409.091074504246
2,1, 1, 1, 0,14, 0.00,60.00,Holiday
11,203647313.11312977
47,85909190.02506958
71,37989590.0250696
346,47919599.99999992
993,89913239.99999997
1017,89913239.99999997
1497,70008634.23435001
1533,0.0
1557,0.0
2228,7410918.788902621
2366,2473893.161893932
4122,20372300.579663546
4134,16482452.608216165
4171,3545058.6301972984
4231,67534741.07245608
4244,10412.668370463787
4355,0.0
4480,31251.051123618905
2,1, 1, 1, 0,15, 0.00,60.00,Holiday
11,203618883.62226115
47,85894077.0814126
71,37974477.08141263
346,47919599.99999992
993,89913239.99999997
1017,89913239.99999997
1497,71356436.9386066
1533,0.0
1557,0.0
2228,7248457.8156959959
2366,2364581.9721359035
4122,20257368.747696058
4134,16482452.608216165
4171,3545058.6301972984
4231,68991854.9664707
4244,11413.626195675362
4355,263372.5820004686
4480,30953.769260357432
2,1, 1, 1, 0,16, 0.00,60.00,Holiday
11,203666753.0933896
47,86021627.3525972
71,38102027.35259722
346,47919599.99999992
993,89913239.99999997
1017,89913239.99999997
1497,81747356.45808268
1533,0.0
1557,0.0
2228,7080471.394129207
2366,2186165.520110231
4122,20281116.65388213
4134,16482452.608216165
4171,3545058.6301972984
4231,79561190.93797244
4244,13263.285187443795
4355,326810.20266283038
4480,30224.20493083849
2,1, 1, 1, 0,17, 0.00,60.00,Holiday
11,206765274.68967236
47,88893471.76673353
71,40973871.76673354
346,47919599.99999992
993,89913239.99999997
1017,89913239.99999997
1497,130239792.55829051
1533,28597212.921243654
1557,28597212.921243654
2228,7582881.375776248
2366,2457675.8422423715
4122,20310163.525658378
4134,16482452.608216165
4171,3545058.6301972984
4231,99184903.79480449
4244,16331.566453931991
4355,19739.665246199376
4480,29446.789804099746
2,1, 1, 1, 0,18, 0.00,60.00,Holiday
11,180323826.57390938
47,78647111.99999994
71,30727511.99999999
346,47919599.99999992
993,74424959.99999996
1017,74424959.99999996
1497,196837345.50356499
1533,28597212.921243654
1557,28597212.921243654
2228,6370101.462066837
2366,2414303.1128298274
4122,20824936.98455467
4134,16482452.608216165
4171,3545058.630197298
4231,165825829.4694915
4244,25978.564126306166
4355,0.0
4480,30737.563161630038
2,1, 1, 1, 0,19, 0.00,60.00,Holiday
11,232844577.82006902
47,106749035.99999982
71,15931835.999999995
346,90817199.99999984
993,101834279.99999984
1017,101834279.99999984
1497,233560610.95305605
1533,28597212.921243654
1557,28597212.921243654
2228,5657444.40242075
2366,1915562.9956463818
4122,18527488.14950633
4134,14589760.743815974
4171,3545058.630197298
4231,203047835.036166
4244,36522.06570937941
4355,0.0
4480,39807.2024327517
2,1, 1, 1, 0,20, 0.00,60.00,Holiday
11,260406965.20044319
47,124250678.9999998
71,4835078.999999999
346,119415599.9999998
993,118816469.99999982
1017,118816469.99999982
1497,6835845.102380991
1533,0.0
1557,0.0
2228,5130498.130693452
2366,1906917.0948301289
4122,12209318.069749948
4134,8488078.333418433
4171,3545058.6301972984
4231,4928928.007550863
4244,0.0
4355,0.0
4480,0.0
2,1, 1, 1, 0,21, 0.00,60.00,Holiday
11,288163839.9703786
47,138549878.9999998
71,4835078.999999999
346,133714799.99999979
993,133115669.99999979
1017,133115669.99999979
1497,8292757.131343773
1533,0.0
1557,0.0
2228,4229621.020781035
2366,1891781.745235789
4122,12268669.949597788
4134,8488078.333418433
4171,3545058.6301972984
4231,6400975.386107983
4244,0.0
4355,0.0
4480,0.0
2,1, 1, 1, 0,22, 0.00,60.00,Holiday
11,259245620.1293332
47,124250678.9999998
71,4835078.999999999
346,119415599.9999998
993,118816469.99999982
1017,118816469.99999982
1497,19316755.660352164
1533,0.0
1557,0.0
2228,3461934.78841173
2366,1440755.4914178993
4122,12716536.340921695
4134,8488078.333418433
4171,3545058.6301972984
4231,17876000.168934265
4244,0.0
4355,0.0
4480,0.0
2,1, 1, 1, 0,23, 0.00,60.00,Holiday
11,200365306.3570019
47,95652278.99999984
71,4835078.999999999
346,90817199.99999984
993,90218069.99999985
1017,90218069.99999985
1497,1260741.997974068
1533,0.0
1557,0.0
2228,2461820.3933863358
2366,1260741.997974068
4122,12033136.96361573
4134,8488078.333418433
4171,3545058.630197298
4231,0.0
4244,0.0
4355,0.0
4480,0.0
2,1, 1, 1, 0,24, 0.00,60.00,Holiday
11,112901495.4236096
47,52754678.99999992
71,4835078.999999999
346,47919599.99999992
993,47320469.999999929
1017,47320469.999999929
1497,1283500.821844455
1533,0.0
1557,0.0
2228,793209.4599938884
2366,1283500.821844455
4122,12033136.96361573
4134,8488078.333418433
4171,3545058.6301972984
4231,0.0
4244,0.0
4355,0.0
4480,0.0
2,2, 1, 2, 0, 1, 0.00,60.00,Friday
11,55691641.142047379
47,24156278.99999996
71,4835078.999999999
346,19321199.999999968
993,18722069.99999997
1017,18722069.99999997
1497,1043833.0420554655
1533,0.0
1557,0.0
2228,780155.1784316669
2366,1043833.0420554655
4122,12033136.96361573
4134,8488078.333418433
4171,3545058.6301972984
4231,0.0
4244,0.0
4355,0.0
4480,0.0
2,2, 1, 2, 0, 2, 0.00,60.00,Friday
11,56595636.76925314
47,24156278.99999996
71,4835078.999999999
346,19321199.999999968
993,18722069.99999997
1017,18722069.99999997
1497,3742945.104579173
1533,0.0
1557,0.0
2228,1573292.1071014936
2366,1034648.0166711777
4122,12143995.662151682
4134,8488078.333418433
4171,3545058.6301972984
4231,2708297.087907995
4244,0.0
4355,0.0
4480,0.0
2,2, 1, 2, 0, 3, 0.00,60.00,Friday
11,56199958.703644048
47,24156278.99999996
71,4835078.999999999
346,19321199.999999968
993,18722069.99999997
1017,18722069.99999997
1497,13491904.310692456
1533,0.0
1557,0.0
2228,786426.3872688204
2366,1034821.3860089043
4122,12535183.316375252
4134,8488078.333418433
4171,3545058.6301972984
4231,12457082.924683553
4244,0.0
4355,0.0
4480,0.0
2,2, 1, 2, 0, 4, 0.00,60.00,Friday
11,56927650.57543615
47,24156278.99999996
71,4835078.999999999
346,19321199.999999968
993,18722069.99999997
1017,18722069.99999997
1497,31638340.628612758
1533,0.0
1557,0.0
2228,780130.4043483775
2366,1029801.0754565967
4122,13269171.171087809
4134,8488078.333418433
4171,3545058.6301972984
4231,30608539.55315616
4244,0.0
4355,0.0
4480,0.0
2,2, 1, 2, 0, 5, 0.00,60.00,Friday
11,58143056.83541126
47,24156278.99999996
71,4835078.999999999
346,19321199.999999968
993,18722069.99999997
1017,18722069.99999997
1497,50025910.173938188
1533,0.0
1557,0.0
2228,1220519.8820130854
2366,1029832.1682287697
4122,14044187.95339819
4134,8488078.333418433
4171,3545058.6301972984
4231,48996078.00570942
4244,0.0
4355,0.0
4480,0.0
2,2, 1, 2, 0, 6, 0.00,60.00,Friday
11,126200224.10167316
47,53890838.99999992
71,5971238.999999999
346,47919599.99999992
993,47871269.999999929
1017,47871269.999999929
1497,245091621.8590116
1533,0.0
1557,0.0
2228,1119708.2961366177
2366,1036776.1066888347
4122,22855601.584188545
4134,18051189.015676097
4171,3545058.6301972984
4231,244054845.75232274
4244,42226.16926466709
4355,0.0
4480,420579.05208337059
2,2, 1, 2, 0, 7, 0.00,60.00,Friday
11,206087672.82346059
47,80361638.99999988
71,5971238.999999999
346,74390399.99999988
993,69320069.9999999
1017,69320069.9999999
1497,1162005104.3880888
1533,28597212.921243654
1557,28597212.921243654
2228,780086.6445707467
2366,1034576.4573191014
4122,53790775.92962925
4134,24780018.06241819
4171,3545058.630197298
4231,1132373315.0095258
4244,122257.22871762426
4355,0.0
4480,1712844.020543078
2,2, 1, 2, 0, 8, 0.00,60.00,Friday
11,217339350.7265669
47,95882826.03426014
71,21492426.03426027
346,74390399.99999988
993,83139479.99999988
1017,83139479.99999988
1497,781808784.376246
1533,28882321.086319496
1557,28882321.086319496
2228,2716030.1348309165
2366,1969736.0532927053
4122,34947389.80426253
4134,16619293.4428683
4171,3545058.6301972984
4231,750956727.2366337
4244,91373.04748253111
4355,0.0
4480,562251.7057308497
2,2, 1, 2, 0, 9, 0.00,60.00,Friday
11,271560294.20130589
47,122949848.02265464
71,48559448.02265477
346,74390399.99999988
993,112981499.99999987
1017,112981499.99999987
1497,552583681.6913259
1533,285108.16507584266
1557,285108.16507584266
2228,5173684.945575042
2366,2365510.6623664668
4122,30231707.574490478
4134,16482452.608216165
4171,3545058.6301972984
4231,549933062.8638836
4244,66001.32897082903
4355,0.0
4480,157552.3296149145
2,2, 1, 2, 0,10, 0.00,60.00,Friday
11,330476300.56168159
47,150601735.28338138
71,76211335.28338142
346,74390399.99999988
993,143958059.99999995
1017,143958059.99999995
1497,468353199.97663167
1533,285108.16507584266
1557,285108.16507584266
2228,6332083.4966052
2366,2698488.7484629696
4122,29451980.547281885
4134,16510710.864241476
4171,3545058.630197298
4231,465369603.0630928
4244,49047.91428531459
4355,0.0
4480,83393.32012788955
2,2, 1, 2, 0,11, 0.00,60.00,Friday
11,290848331.6419885
47,129670381.21988318
71,76728781.2198832
346,52941599.9999999
993,122509259.99999996
1017,122509259.99999996
1497,478916625.815351
1533,513194.69713651677
1557,513194.69713651677
2228,8226293.140100546
2366,3467308.990796413
4122,30323522.469017008
4134,16515898.8785815
4171,3545058.6301972984
4231,474936122.12741819
4244,46259.97426855448
4355,0.0
4480,72614.83871919962
2,2, 1, 2, 0,12, 0.00,60.00,Friday
11,293469492.1081822
47,129117112.44542097
71,76175512.44542098
346,52941599.9999999
993,122509259.99999996
1017,122509259.99999996
1497,465997126.81496247
1533,11952079.865633984
1557,11952079.865633984
2228,12011082.096879406
2366,3986766.7752037069
4122,29719631.095302229
4134,16688914.389254546
4171,3545058.6301972984
4231,450058280.1741248
4244,44708.033437928796
4355,0.0
4480,67698.4371417296
2,2, 1, 2, 0,13, 0.00,60.00,Friday
11,291289173.2568165
47,128268170.35276652
71,75326570.35276653
346,52941599.9999999
993,122509259.99999996
1017,122509259.99999996
1497,424367775.47290596
1533,11952079.865633984
1557,11952079.865633984
2228,11960085.459279644
2366,4464677.892418692
4122,28451637.78951993
4134,16750847.511748098
4171,3545058.6301972984
4231,407951017.7148532
4244,42128.380755048485
4355,0.0
4480,57891.27449536043
2,2, 1, 2, 0,14, 0.00,60.00,Friday
11,292692392.2040151
47,129472246.97287455
71,76530646.97287458
346,52941599.9999999
993,122509259.99999996
1017,122509259.99999996
1497,374689947.3415239
1533,513194.69713651677
1557,513194.69713651677
2228,12793980.53205443
2366,4471683.237966494
4122,27834789.695298055
4134,16795260.867739917
4171,3545058.6301972984
4231,369705069.4064208
4244,36843.398249705235
4355,0.0
4480,45271.60553845855
2,2, 1, 2, 0,15, 0.00,60.00,Friday
11,288630963.8241712
47,128760701.85788082
71,75819101.85788083
346,52941599.9999999
993,122509259.99999996
1017,122509259.99999996
1497,336181417.8256327
1533,427662.2476137639
1557,427662.2476137639
2228,10295739.621828732
2366,3571266.933729234
4122,26993632.981305228
4134,16871544.092352045
4171,3545058.6301972984
4231,332182488.6442897
4244,33086.33696521981
4355,0.0
4480,38543.026191276935
2,2, 1, 2, 0,16, 0.00,60.00,Friday
11,280651040.3842654
47,124993244.29378936
71,72051644.29378937
346,52941599.9999999
993,122509259.99999996
1017,122509259.99999996
1497,250001402.05814839
1533,427662.2476137639
1557,427662.2476137639
2228,8646488.66027451
2366,3208622.960532765
4122,24439644.735116316
4134,17349562.965451797
4171,3545058.6301972984
4231,246365116.85000188
4244,28910.333301473038
4355,0.0
4480,33492.36178380729
2,2, 1, 2, 0,17, 0.00,60.00,Friday
11,285611800.32036516
47,129668360.36549469
71,76726760.3654947
346,52941599.9999999
993,122509259.99999996
1017,122509259.99999996
1497,258837856.70370836
1533,29024875.168857416
1557,29024875.168857416
2228,9270876.827494022
2366,3642056.8454326197
4122,24104666.34388911
4134,17457928.69324891
4171,3545058.6301972984
4231,226170924.68941833
4244,26845.39263741748
4355,0.0
4480,31791.39084996059
2,2, 1, 2, 0,18, 0.00,60.00,Friday
11,276365835.73556509
47,123776342.99999996
71,70834742.99999997
346,52941599.9999999
993,118102859.99999997
1017,118102859.99999997
1497,305670785.4108547
1533,29024875.168857416
1557,29024875.168857416
2228,9663495.416280415
2366,3127122.0530286708
4122,24755420.573184715
4134,17032411.96758774
4171,3545058.6301972984
4231,273518788.18896868
4244,32174.537945434076
4355,0.0
4480,35542.20815459387
2,2, 1, 2, 0,19, 0.00,60.00,Friday
11,309461223.8940894
47,143344268.99999986
71,47505068.99999999
346,95839199.99999984
993,135564839.99999989
1017,135564839.99999989
1497,257583147.99675445
1533,28597212.921243654
1557,28597212.921243654
2228,9027388.995698553
2366,2983470.7555908376
4122,21445172.92655606
4134,16612050.43960211
4171,3545058.6301972984
4231,226002464.31991989
4244,37104.96519274532
4355,0.0
4480,42448.006642256616
2,2, 1, 2, 0,20, 0.00,60.00,Friday
11,363261802.6815758
47,171942668.99999974
71,47505068.99999999
346,124437599.9999998
993,164163239.99999974
1017,164163239.99999974
1497,249434764.06509925
1533,0.0
1557,0.0
2228,6262562.136324701
2366,2484198.385188373
4122,20781901.183204257
4134,16499541.8447064
4171,3545058.6301972984
4231,246950565.6799109
4244,45401.67305139075
4355,0.0
4480,66028.68899574643
2,2, 1, 2, 0,21, 0.00,60.00,Friday
11,378081033.3381599
47,180270629.9999997
71,41533829.999999988
346,138736799.9999998
993,169616699.99999974
1017,169616699.99999974
1497,270870647.91702416
1533,0.0
1557,0.0
2228,7172940.267764369
2366,2517602.4960062408
4122,20881836.2328831
4134,16482452.608216165
4171,3545058.6301972984
4231,268353045.42101795
4244,50061.89506921267
4355,0.0
4480,88864.94244363182
2,2, 1, 2, 0,22, 0.00,60.00,Friday
11,296051295.3426055
47,143777915.9999998
71,19340315.999999998
346,124437599.9999998
993,132085079.9999998
1017,132085079.9999998
1497,139562969.5069938
1533,0.0
1557,0.0
2228,4622323.84042647
2366,1972104.7166547916
4122,15518426.917346243
4134,10380770.197818622
4171,3545058.6301972984
4231,137590864.79033903
4244,17864.331214413858
4355,0.0
4480,29684.253618674826
2,2, 1, 2, 0,23, 0.00,60.00,Friday
11,204062936.22256098
47,96788438.99999984
71,5971238.999999999
346,90817199.99999984
993,90768869.99999985
1017,90768869.99999985
1497,115483462.03714469
1533,0.0
1557,0.0
2228,2527329.0315180418
2366,1347820.0469834044
4122,13925828.82801592
4134,10380770.197818622
4171,3545058.630197298
4231,114135641.99016127
4244,20434.87424392045
4355,0.0
4480,32034.48878329406
2,2, 1, 2, 0,24, 0.00,60.00,Friday
11,115672678.28213345
47,52754678.99999992
71,4835078.999999999
346,47919599.99999992
993,47320469.999999929
1017,47320469.999999929
1497,126275571.39584962
1533,0.0
1557,0.0
2228,1613260.7820005115
2366,1313511.845348232
4122,13925828.82801592
4134,10380770.197818622
4171,3545058.6301972984
4231,124962059.55050138
4244,22373.23878544371
4355,0.0
4480,36066.43333160165
2,3, 1, 3, 0, 1, 0.00,60.00,Saturday
11,57453523.233977887
47,24156278.99999996
71,4835078.999999999
346,19321199.999999968
993,18722069.99999997
1017,18722069.99999997
1497,2683178.7655741556
1533,0.0
1557,0.0
2228,2483304.427595324
2366,1333802.7172449227
4122,12091869.806382578
4134,8488078.333418433
4171,3545058.630197298
4231,1349376.0483292328
4244,0.0
4355,0.0
4480,0.0
2,3, 1, 3, 0, 2, 0.00,60.00,Saturday
11,58125133.36591857
47,24156278.99999996
71,4835078.999999999
346,19321199.999999968
993,18722069.99999997
1017,18722069.99999997
1497,18986363.73864799
1533,0.0
1557,0.0
2228,2461653.997892817
2366,1326987.6909679655
4122,12785130.368025784
4134,8488078.333418433
4171,3545058.6301972984
4231,17659376.04768002
4244,0.0
4355,0.0
4480,0.0
2,3, 1, 3, 0, 3, 0.00,60.00,Saturday
11,59082579.53703472
47,24156278.99999996
71,4835078.999999999
346,19321199.999999968
993,18722069.99999997
1017,18722069.99999997
1497,61509788.18972148
1533,0.0
1557,0.0
2228,1613095.9136924032
2366,1151187.5614564289
4122,14591134.623342352
4134,8488078.333418433
4171,3545058.6301972984
4231,60358600.62826505
4244,0.0
4355,0.0
4480,0.0
2,3, 1, 3, 0, 4, 0.00,60.00,Saturday
11,60766106.904862787
47,24156278.99999996
71,4835078.999999999
346,19321199.999999968
993,18722069.99999997
1017,18722069.99999997
1497,118623152.61348844
1533,0.0
1557,0.0
2228,793029.4256572673
2366,1200652.382858709
4122,17094728.479205565
4134,8488078.333418433
4171,3545058.6301972984
4231,117422500.23062971
4244,0.0
4355,0.0
4480,0.0
2,3, 1, 3, 0, 5, 0.00,60.00,Saturday
11,64121277.40370452
47,24156278.99999996
71,4835078.999999999
346,19321199.999999968
993,18722069.99999997
1017,18722069.99999997
1497,177652846.75246183
1533,0.0
1557,0.0
2228,1586246.5974995392
2366,1040107.1810804631
4122,19656681.80620501
4134,8488078.333418433
4171,3545058.6301972984
4231,176612739.57138137
4244,0.0
4355,0.0
4480,0.0
2,3, 1, 3, 0, 6, 0.00,60.00,Saturday
11,128934074.08088374
47,52754678.99999992
71,4835078.999999999
346,47919599.99999992
993,47320469.999999929
1017,47320469.999999929
1497,420831742.0736706
1533,0.0
1557,0.0
2228,1586322.9482087084
2366,1308957.9445182649
4122,26446577.774145269
4134,15634692.040752775
4171,3545058.6301972984
4231,419522784.1291523
4244,51097.1796208178
4355,0.0
4480,774927.1789089899
2,3, 1, 3, 0, 7, 0.00,60.00,Saturday
11,217758239.53241474
47,80361638.99999988
71,5971238.999999999
346,74390399.99999988
993,69320069.9999999
1017,69320069.9999999
1497,1560893737.359381
1533,28597212.921243654
1557,28597212.921243654
2228,1510241.8941941346
2366,1050136.6389860383
4122,64392046.83671211
4134,23460105.788620064
4171,3545058.630197298
4231,1531246387.7991513
4244,147810.68342271073
4355,0.0
4480,2026431.1180858887
2,3, 1, 3, 0, 8, 0.00,60.00,Saturday
11,206969956.64063717
47,83973083.0142079
71,9582683.01420803
346,74390399.99999988
993,73192139.99999988
1017,73192139.99999988
1497,1142693093.619228
1533,28597212.921243654
1557,28597212.921243654
2228,3692815.0939265049
2366,1986022.5726156459
4122,44528303.32121392
4134,16780705.45712393
4171,3545058.6301972984
4231,1112109858.1253687
4244,127483.93629357888
4355,0.0
4480,1456131.2749952756
2,3, 1, 3, 0, 9, 0.00,60.00,Saturday
11,234769646.77515555
47,100918684.4939912
71,26528284.493991328
346,74390399.99999988
993,90883619.99999987
1017,90883619.99999987
1497,863302838.8949109
1533,285108.16507584266
1557,285108.16507584266
2228,4670703.513499448
2366,2050349.3285591389
4122,36865369.82865603
4134,16510675.613001928
4171,3545058.6301972984
4231,860967381.401276
4244,108047.11435261602
4355,0.0
4480,1323221.8246563287
2,3, 1, 3, 0,10, 0.00,60.00,Saturday
11,270705574.0888387
47,118042330.87895648
71,43651930.8789566
346,74390399.99999988
993,114116039.99999988
1017,114116039.99999988
1497,664913705.5886302
1533,285108.16507584266
1557,285108.16507584266
2228,5772620.079570792
2366,2238145.901829405
4122,32004321.66947183
4134,16510774.717519403
4171,3545058.6301972984
4231,662390451.5217249
4244,84856.87287899648
4355,0.0
4480,685404.5879606158
2,3, 1, 3, 0,11, 0.00,60.00,Saturday
11,271839999.67681178
47,116843311.32871887
71,63901711.328718889
346,52941599.9999999
993,115899659.99999997
1017,115899659.99999997
1497,558425052.9797078
1533,513194.69713651677
1557,513194.69713651677
2228,8943493.450907594
2366,2835272.094851127
4122,29740768.53203087
4134,16580864.535302552
4171,3545058.630197298
4231,555076586.1877202
4244,70237.51939266769
4355,0.0
4480,342528.8457617939
2,3, 1, 3, 0,12, 0.00,60.00,Saturday
11,270582844.15405228
47,116821272.14340557
71,63879672.143405597
346,52941599.9999999
993,115899659.99999997
1017,115899659.99999997
1497,454424444.90028288
1533,11952079.865633984
1557,11952079.865633984
2228,10763946.846322364
2366,3612543.1258741628
4122,26867989.43130534
4134,16767571.039426066
4171,3545058.6301972984
4231,438859821.90877476
4244,58803.19666957985
4355,0.0
4480,171172.53634946038
2,3, 1, 3, 0,13, 0.00,60.00,Saturday
11,263907924.06768275
47,113435877.11637947
71,60494277.11637949
346,52941599.9999999
993,114247259.99999997
1017,114247259.99999997
1497,355119562.7708993
1533,11952079.865633984
1557,11952079.865633984
2228,11526853.037416554
2366,3707959.8177946929
4122,24567595.523429544
4134,16872769.263041375
4171,3545058.6301972984
4231,339459523.08747068
4244,47937.38475491067
4355,0.0
4480,82401.00570230586
2,3, 1, 3, 0,14, 0.00,60.00,Saturday
11,263620025.48163886
47,113378598.57241327
71,60436998.572413299
346,52941599.9999999
993,114247259.99999997
1017,114247259.99999997
1497,266381783.17588485
1533,513194.69713651677
1557,513194.69713651677
2228,12759498.26703466
2366,3722933.8380516057
4122,23128406.20190861
4134,17213991.134936584
4171,3545058.6301972984
4231,262145654.6406967
4244,38880.35860541613
4355,18970.59053302178
4480,48411.4911439303
2,3, 1, 3, 0,15, 0.00,60.00,Saturday
11,260718382.29634056
47,113244358.33565715
71,60302758.335657168
346,52941599.9999999
993,114247259.99999997
1017,114247259.99999997
1497,203305883.30522625
1533,427662.2476137639
1557,427662.2476137639
2228,9978509.413909784
2366,3069537.5012158367
4122,22764494.238858615
4134,17891879.357361899
4171,3545058.6301972984
4231,199808683.55639667
4244,30518.355099262393
4355,418636.02754034
4480,34605.92527547225
2,3, 1, 3, 0,16, 0.00,60.00,Saturday
11,260938194.6196208
47,113453292.60621296
71,60511692.60621297
346,52941599.9999999
993,114247259.99999997
1017,114247259.99999997
1497,174667461.71964956
1533,427662.2476137639
1557,427662.2476137639
2228,9659929.439164222
2366,3023731.529883979
4122,22957965.207735599
4134,18399138.457080284
4171,3545058.6301972984
4231,171216067.94215179
4244,26175.16973994722
4355,562794.3958546227
4480,30777.80091352843
2,3, 1, 3, 0,17, 0.00,60.00,Saturday
11,264651500.39401789
47,117757756.93878509
71,64816156.938785109
346,52941599.9999999
993,114247259.99999997
1017,114247259.99999997
1497,210514452.61439223
1533,29024875.168857416
1557,29024875.168857416
2228,9329895.674541792
2366,3021201.022675749
4122,23205720.055889675
4134,18623854.143029859
4171,3545058.6301972984
4231,178468376.42285905
4244,27013.63903925577
4355,52678.39869076737
4480,31175.68707140765
2,3, 1, 3, 0,18, 0.00,60.00,Saturday
11,257531905.78151537
47,111937382.99999996
71,64017782.99999998
346,47919599.99999992
993,113145659.99999997
1017,113145659.99999997
1497,277521208.3391961
1533,28597212.921243654
1557,28597212.921243654
2228,8973485.856135769
2366,2943842.049007984
4122,23396754.779915714
4134,17871968.91023182
4171,3545058.6301972984
4231,245980153.36894448
4244,36612.31714887185
4355,0.0
4480,42009.82831509321
2,3, 1, 3, 0,19, 0.00,60.00,Saturday
11,284715239.69954207
47,128942549.99999987
71,38125349.999999988
346,90817199.99999984
993,125066699.99999988
1017,125066699.99999988
1497,316259502.51316878
1533,28597212.921243654
1557,28597212.921243654
2228,9154088.44927883
2366,2907363.5511349944
4122,21415204.029118308
4134,16483481.442484549
4171,3545058.630197298
4231,284754926.04079017
4244,49968.20812097521
4355,0.0
4480,86729.01302408043
2,3, 1, 3, 0,20, 0.00,60.00,Saturday
11,307339996.5214157
47,142745273.9999998
71,23329673.999999994
346,119415599.9999998
993,138176819.9999998
1017,138176819.9999998
1497,222889265.05316366
1533,0.0
1557,0.0
2228,7410467.773878891
2366,2460617.715749386
4122,18907953.33390323
4134,14589760.743815974
4171,3545058.6301972984
4231,220428647.33741427
4244,38334.032605323664
4355,0.0
4480,61147.38102848181
2,3, 1, 3, 0,21, 0.00,60.00,Saturday
11,334335857.0549782
47,157044473.99999977
71,23329673.999999994
346,133714799.99999979
993,152476019.99999977
1017,152476019.99999977
1497,238362926.7702526
1533,0.0
1557,0.0
2228,5891247.9031445779
2366,2068077.7847548174
4122,18809954.321005007
4134,14589760.743815974
4171,3545058.6301972984
4231,236294848.9854978
4244,42754.639415852565
4355,0.0
4480,71406.19141307427
2,3, 1, 3, 0,22, 0.00,60.00,Saturday
11,275012727.84833249