Program Version,EnergyPlus, Version 9.0.1-bb7ca4f0da, YMD=2019.12.18 16:18
1,5,Environment Title[],Latitude[deg],Longitude[deg],Time Zone[],Elevation[m]
2,8,Day of Simulation[],Month[],Day of Month[],DST Indicator[1=yes 0=no],Hour[],StartMinute[],EndMinute[],DayType
3,5,Cumulative Day of Simulation[],Month[],Day of Month[],DST Indicator[1=yes 0=no],DayType  ! When Daily Meters Requested
4,2,Cumulative Days of Simulation[],Month[]  ! When Monthly Meters Requested
5,1,Cumulative Days of Simulation[] ! When Run Period Meters Requested
6,1,Calendar Year of Simulation[] ! When Annual Meters Requested
47,1,InteriorLights:Electricity [J] !Hourly
1497,1,Gas:Facility [J] !Hourly
4222,1,Heating:Gas [J] !Hourly
2228,1,WaterSystems:Electricity [J] !Hourly
11,1,Electricity:Facility [J] !Hourly
993,1,InteriorEquipment:Electricity [J] !Hourly
4114,1,Fans:Electricity [J] !Hourly
71,1,ComplianceLtg:InteriorLights:Electricity [J] !Hourly
4471,1,Pumps:Electricity [J] !Hourly
4235,1,Heating:Electricity [J] !Hourly
4350,1,Cooling:Electricity [J] !Hourly
1533,1,InteriorEquipment:Gas [J] !Hourly
1557,1,Receptacle:InteriorEquipment:Gas [J] !Hourly
4126,1,General:Fans:Electricity [J] !Hourly
2366,1,WaterSystems:Gas [J] !Hourly
1017,1,Receptacle:InteriorEquipment:Electricity [J] !Hourly
346,1,NonComplianceLtg:InteriorLights:Electricity [J] !Hourly
4162,1,ProcessMotors:Fans:Electricity [J] !Hourly
End of Data Dictionary
1,RIVERSIDE_722869_CZ2010,  33.95,-117.44,  -8.00, 253.00
2,1, 1, 1, 0, 1, 0.00,60.00,Holiday
11,66338914.70077891
47,24156278.99999996
71,4835078.999999999
346,19321199.999999968
993,18722069.99999997
1017,18722069.99999997
1497,1040191.9099648902
1533,0.0
1557,0.0
2228,802859.2553685755
2366,1040191.9099648902
4114,22657706.44541039
4126,8458341.339612136
4162,14199365.105798254
4222,0.0
4235,0.0
4350,0.0
4471,0.0
2,1, 1, 1, 0, 2, 0.00,60.00,Holiday
11,67141590.47186922
47,24156278.99999996
71,4835078.999999999
346,19321199.999999968
993,18722069.99999997
1017,18722069.99999997
1497,1040119.1039694381
1533,0.0
1557,0.0
2228,1605535.0264588774
2366,1040119.1039694381
4114,22657706.44541039
4126,8458341.339612136
4162,14199365.105798254
4222,0.0
4235,0.0
4350,0.0
4471,0.0
2,1, 1, 1, 0, 3, 0.00,60.00,Holiday
11,67141777.02226249
47,24156278.99999996
71,4835078.999999999
346,19321199.999999968
993,18722069.99999997
1017,18722069.99999997
1497,1187545.0173305595
1533,0.0
1557,0.0
2228,1605721.5768521387
2366,1187545.0173305595
4114,22657706.44541039
4126,8458341.339612136
4162,14199365.105798254
4222,0.0
4235,0.0
4350,0.0
4471,0.0
2,1, 1, 1, 0, 4, 0.00,60.00,Holiday
11,66394417.517840769
47,24156278.99999996
71,4835078.999999999
346,19321199.999999968
993,18722069.99999997
1017,18722069.99999997
1497,2540558.1862318885
1533,0.0
1557,0.0
2228,796626.3058230369
2366,1147059.7383007457
4114,22719442.212017787
4126,8458341.339612136
4162,14199365.105798254
4222,1393498.447931143
4235,0.0
4350,0.0
4471,0.0
2,1, 1, 1, 0, 5, 0.00,60.00,Holiday
11,67563688.2373844
47,24156278.99999996
71,4835078.999999999
346,19321199.999999968
993,18722069.99999997
1017,18722069.99999997
1497,11019285.959795546
1533,0.0
1557,0.0
2228,1593217.5408444517
2366,1034920.8481386708
4114,23092121.69653999
4126,8458341.339612136
4162,14199365.105798254
4222,9984365.111656875
4235,0.0
4350,0.0
4471,0.0
2,1, 1, 1, 0, 6, 0.00,60.00,Holiday
11,126373325.35288355
47,52754678.99999992
71,4835078.999999999
346,47919599.99999992
993,47320469.999999929
1017,47320469.999999929
1497,80902107.54846967
1533,0.0
1557,0.0
2228,796646.2160894135
2366,1041491.2659198506
4114,25501530.136794174
4126,10490501.918585619
4162,14199365.105798254
4222,79860616.2825498
4235,0.0
4350,0.0
4471,0.0
2,1, 1, 1, 0, 7, 0.00,60.00,Holiday
11,194397173.3755229
47,74200284.150284
71,4831884.150284121
346,69368399.9999999
993,68769269.9999999
1017,68769269.9999999
1497,588488776.2374065
1533,28597212.921243654
1557,28597212.921243654
2228,1605739.7583658298
2366,1282639.904138083
4114,49755000.95437051
4126,13036198.400496886
4162,14199365.105798254
4222,558608923.4120247
4235,158.25729881569337
4350,0.0
4471,66720.25520385835
2,1, 1, 1, 0, 8, 0.00,60.00,Holiday
11,185991152.93003238
47,74161406.22225259
71,4793006.222252714
346,69368399.9999999
993,68769269.9999999
1017,68769269.9999999
1497,375951141.5198859
1533,28597212.921243654
1557,28597212.921243654
2228,1643867.9009217187
2366,1072489.81305996
4114,41316914.92267749
4126,14287472.942453269
4162,14199365.105798254
4222,346281438.78558227
4235,159.80454987292939
4350,0.0
4471,99534.07963077113
2,1, 1, 1, 0, 9, 0.00,60.00,Holiday
11,204525309.41725425
47,77702684.5819369
71,8334284.581937031
346,69368399.9999999
993,72641339.99999988
1017,72641339.99999988
1497,734576288.8407716
1533,0.0
1557,0.0
2228,2506076.3044308277
2366,1331310.4795390794
4114,50385693.764214929
4126,26331364.968722617
4162,14199365.105798254
4222,733244978.3612325
4235,98305.80868336986
4350,0.0
4471,1191208.9579883344
2,1, 1, 1, 0,10, 0.00,60.00,Holiday
11,190942428.12153793
47,77505659.1905349
71,8137259.190535033
346,69368399.9999999
993,72641339.99999988
1017,72641339.99999988
1497,551009368.5546932
1533,0.0
1557,0.0
2228,2547354.6217907366
2366,1366519.4573111255
4114,37819403.482952918
4126,16583723.408846654
4162,14199365.105798254
4222,549642849.0973821
4235,66111.07731006043
4350,0.0
4471,362559.7489493705
2,1, 1, 1, 0,11, 0.00,60.00,Holiday
11,192198612.56598825
47,76188313.19464
71,28268713.194640049
346,47919599.99999992
993,74424959.99999996
1017,74424959.99999996
1497,389933057.57683959
1533,0.0
1557,0.0
2228,5814348.6004133629
2366,2004213.2542661904
4114,35503744.9198125
4126,16519577.605455207
4162,14199365.105798254
4222,387928844.32257339
4235,39995.39822173379
4350,0.0
4471,227250.4529007729
2,1, 1, 1, 0,12, 0.00,60.00,Holiday
11,188261232.23271037
47,75738797.72426495
71,27819197.724264996
346,47919599.99999992
993,74424959.99999996
1017,74424959.99999996
1497,249726248.05468194
1533,11438885.168497468
1557,11438885.168497468
2228,5926312.88078922
2366,2199500.01598694
4114,31939404.641024688
4126,16519577.605455207
4162,14199365.105798254
4222,236087862.87019748
4235,26499.674694909445
4350,0.0
4471,205257.3119367137
2,1, 1, 1, 0,13, 0.00,60.00,Holiday
11,212951268.56178767
47,85791188.24721478
71,37871588.24721481
346,47919599.99999992
993,89913239.99999997
1017,89913239.99999997
1497,123658661.4968729
1533,11438885.168497468
1557,11438885.168497468
2228,6225008.471574317
2366,2273673.8552279148
4114,30813953.876805679
4126,16519577.605455207
4162,14199365.105798254
4222,109946102.47314753
4235,9607.832316052256
4350,0.0
4471,198270.13387689199
2,1, 1, 1, 0,14, 0.00,60.00,Holiday
11,214765331.6698116
47,86666642.94539365
71,38747042.9453937
346,47919599.99999992
993,89913239.99999997
1017,89913239.99999997
1497,73194417.90280691
1533,0.0
1557,0.0
2228,7263784.672365925
2366,2434678.7321471099
4114,30718942.71125346
4126,16519577.605455207
4162,14199365.105798254
4222,70759739.1706598
4235,4311.490318518801
4350,0.0
4471,198409.85048013915
2,1, 1, 1, 0,15, 0.00,60.00,Holiday
11,217450473.58567993
47,88319131.94630854
71,40399531.94630856
346,47919599.99999992
993,89913239.99999997
1017,89913239.99999997
1497,60441837.90373559
1533,0.0
1557,0.0
2228,6101551.994315352
2366,2101061.470591558
4114,30718942.71125346
4126,16519577.605455207
4162,14199365.105798254
4222,58340776.43314404
4235,3001.646091003447
4350,2196040.734807553
4471,198564.55290411553
2,1, 1, 1, 0,16, 0.00,60.00,Holiday
11,219462320.14721457
47,88034642.05560117
71,40115042.05560118
346,47919599.99999992
993,89913239.99999997
1017,89913239.99999997
1497,55794465.62739919
1533,0.0
1557,0.0
2228,7190089.088363735
2366,2384268.266327736
4114,30718942.71125346
4126,16519577.605455207
4162,14199365.105798254
4222,53410197.36107146
4235,2445.593338145155
4350,3404317.5421921059
4471,198643.1564660702
2,1, 1, 1, 0,17, 0.00,60.00,Holiday
11,219686465.23125828
47,89564834.55211813
71,41645234.552118148
346,47919599.99999992
993,89913239.99999997
1017,89913239.99999997
1497,83698720.72442343
1533,28597212.921243654
1557,28597212.921243654
2228,6477758.659199339
2366,2323018.8616987999
4114,30718942.71125346
4126,16519577.605455207
4162,14199365.105798254
4222,52778488.94148097
4235,2145.0599136951266
4350,2810858.358516646
4471,198685.89025707203
2,1, 1, 1, 0,18, 0.00,60.00,Holiday
11,191612925.91134814
47,78647111.99999994
71,30727511.99999999
346,47919599.99999992
993,74424959.99999996
1017,74424959.99999996
1497,121757580.94536191
1533,28597212.921243654
1557,28597212.921243654
2228,6935109.6694335709
2366,2176706.506636055
4114,30718942.71125346
4126,16519577.605455207
4162,14199365.105798254
4222,90983661.51748222
4235,8383.184292569396
4350,680266.714607962
4471,198151.63176073219
2,1, 1, 1, 0,19, 0.00,60.00,Holiday
11,242158651.68014268
47,106749035.99999982
71,15931835.999999995
346,90817199.99999984
993,101834279.99999984
1017,101834279.99999984
1497,134887124.51229657
1533,28597212.921243654
1557,28597212.921243654
2228,4669524.830031502
2366,1710264.7159115799
4114,28686782.132279979
4126,14487417.026481722
4162,14199365.105798254
4222,104579646.87514131
4235,18723.98479914763
4350,0.0
4471,200304.73303233033
2,1, 1, 1, 0,20, 0.00,60.00,Holiday
11,270480251.96658369
47,124250678.9999998
71,4835078.999999999
346,119415599.9999998
993,118816469.99999982
1017,118816469.99999982
1497,2000607.5774126719
1533,0.0
1557,0.0
2228,4755396.5211735679
2366,2000607.5774126719
4114,22657706.44541039
4126,8458341.339612136
4162,14199365.105798254
4222,0.0
4235,0.0
4350,0.0
4471,0.0
2,1, 1, 1, 0,21, 0.00,60.00,Holiday
11,298828976.4354729
47,138549878.9999998
71,4835078.999999999
346,133714799.99999979
993,133115669.99999979
1017,133115669.99999979
1497,1669031.1759280968
1533,0.0
1557,0.0
2228,4505720.9900628649
2366,1669031.1759280968
4114,22657706.44541039
4126,8458341.339612136
4162,14199365.105798254
4222,0.0
4235,0.0
4350,0.0
4471,0.0
2,1, 1, 1, 0,22, 0.00,60.00,Holiday
11,268314811.00788648
47,124250678.9999998
71,4835078.999999999
346,119415599.9999998
993,118816469.99999982
1017,118816469.99999982
1497,1639042.418152957
1533,0.0
1557,0.0
2228,2589955.5624763567
2366,1639042.418152957
4114,22657706.44541039
4126,8458341.339612136
4162,14199365.105798254
4222,0.0
4235,0.0
4350,0.0
4471,0.0
2,1, 1, 1, 0,23, 0.00,60.00,Holiday
11,210994106.94402666
47,95652278.99999984
71,4835078.999999999
346,90817199.99999984
993,90218069.99999985
1017,90218069.99999985
1497,1104608.413296326
1533,0.0
1557,0.0
2228,2466051.498616522
2366,1104608.413296326
4114,22657706.44541039
4126,8458341.339612136
4162,14199365.105798254
4222,0.0
4235,0.0
4350,0.0
4471,0.0
2,1, 1, 1, 0,24, 0.00,60.00,Holiday
11,123529419.4519915
47,52754678.99999992
71,4835078.999999999
346,47919599.99999992
993,47320469.999999929
1017,47320469.999999929
1497,1245000.810524081
1533,0.0
1557,0.0
2228,796564.006581147
2366,1245000.810524081
4114,22657706.44541039
4126,8458341.339612136
4162,14199365.105798254
4222,0.0
4235,0.0
4350,0.0
4471,0.0
2,2, 1, 2, 0, 1, 0.00,60.00,Friday
11,66320609.53185155
47,24156278.99999996
71,4835078.999999999
346,19321199.999999968
993,18722069.99999997
1017,18722069.99999997
1497,1027685.4299752018
1533,0.0
1557,0.0
2228,784554.0864412137
2366,1027685.4299752018
4114,22657706.44541039
4126,8458341.339612136
4162,14199365.105798254
4222,0.0
4235,0.0
4350,0.0
4471,0.0
2,2, 1, 2, 0, 2, 0.00,60.00,Friday
11,66326605.54205388
47,24156278.99999996
71,4835078.999999999
346,19321199.999999968
993,18722069.99999997
1017,18722069.99999997
1497,1032118.6001800622
1533,0.0
1557,0.0
2228,790550.0966435426
2366,1032118.6001800622
4114,22657706.44541039
4126,8458341.339612136
4162,14199365.105798254
4222,0.0
4235,0.0
4350,0.0
4471,0.0
2,2, 1, 2, 0, 3, 0.00,60.00,Friday
11,67117028.30505191
47,24156278.99999996
71,4835078.999999999
346,19321199.999999968
993,18722069.99999997
1017,18722069.99999997
1497,1032222.6597467184
1533,0.0
1557,0.0
2228,1580972.8596415728
2366,1032222.6597467184
4114,22657706.44541039
4126,8458341.339612136
4162,14199365.105798254
4222,0.0
4235,0.0
4350,0.0
4471,0.0
2,2, 1, 2, 0, 4, 0.00,60.00,Friday
11,66320537.44863774
47,24156278.99999996
71,4835078.999999999
346,19321199.999999968
993,18722069.99999997
1017,18722069.99999997
1497,1027512.5639686143
1533,0.0
1557,0.0
2228,784482.0032274082
2366,1027512.5639686143
4114,22657706.44541039
4126,8458341.339612136
4162,14199365.105798254
4222,0.0
4235,0.0
4350,0.0
4471,0.0
2,2, 1, 2, 0, 5, 0.00,60.00,Friday
11,66336080.30497918
47,24156278.99999996
71,4835078.999999999
346,19321199.999999968
993,18722069.99999997
1017,18722069.99999997
1497,1365177.392397802
1533,0.0
1557,0.0
2228,784492.7365871348
2366,1027485.2468188244
4114,22673238.568392107
4126,8458341.339612136
4162,14199365.105798254
4222,337692.1455789776
4235,0.0
4350,0.0
4471,0.0
2,2, 1, 2, 0, 6, 0.00,60.00,Friday
11,127265262.57696918
47,53890838.99999992
71,5971238.999999999
346,47919599.99999992
993,47871269.999999929
1017,47871269.999999929
1497,62825674.881356459
1533,0.0
1557,0.0
2228,784556.4819730879
2366,1033765.4510119516
4114,24718597.094996133
4126,10490501.918585619
4162,14199365.105798254
4222,61791909.43034451
4235,0.0
4350,0.0
4471,0.0
2,2, 1, 2, 0, 7, 0.00,60.00,Friday
11,201253406.11402915
47,80361638.99999988
71,5971238.999999999
346,74390399.99999988
993,69320069.9999999
1017,69320069.9999999
1497,747177967.5401956
1533,28597212.921243654
1557,28597212.921243654
2228,784550.7730847257
2366,1031969.3733685517
4114,49861195.7662405
4126,23517412.222395518
4162,14199365.105798254
4222,717548785.2455834
4235,80661.97728757719
4350,0.0
4471,845288.5974165269
2,2, 1, 2, 0, 8, 0.00,60.00,Friday
11,218734377.42149205
47,95904582.48301804
71,21514182.483018169
346,74390399.99999988
993,83139479.99999988
1017,83139479.99999988
1497,511254704.3104529
1533,28882321.086319496
1557,28882321.086319496
2228,2569316.089363067
2366,1673523.6563839706
4114,36781026.24225691
4126,16548008.065439018
4162,14199365.105798254
4222,480698859.5677493
4235,54640.412039555915
4350,0.0
4471,285332.1948145568
2,2, 1, 2, 0, 9, 0.00,60.00,Friday
11,277979768.1347232
47,125386929.09241613
71,50996529.09241626
346,74390399.99999988
993,112981499.99999987
1017,112981499.99999987
1497,360417199.0489123
1533,285108.16507584266
1557,285108.16507584266
2228,4589746.570990302
2366,2412539.294491293
4114,34764615.15964168
4126,16519577.605455207
4162,14199365.105798254
4222,357719551.5893451
4235,37065.88812689518
4350,0.0
4471,219911.42354833737
2,2, 1, 2, 0,10, 0.00,60.00,Friday
11,335177296.42759659
47,150921711.16248603
71,76531311.16248608
346,74390399.99999988
993,143958059.99999995
1017,143958059.99999995
1497,264968197.3211939
1533,285108.16507584266
1557,285108.16507584266
2228,5989932.425326594
2366,2555739.1986519519
4114,34080756.06124769
4126,16563720.488274474
4162,14199365.105798254
4222,262127349.95746614
4235,22854.02941688319
4350,0.0
4471,203982.74911951897
2,2, 1, 2, 0,11, 0.00,60.00,Friday
11,294192456.0218462
47,129385401.55384714
71,76443801.55384717
346,52941599.9999999
993,122509259.99999996
1017,122509259.99999996
1497,235543634.85677467
1533,513194.69713651677
1557,513194.69713651677
2228,7656048.156965922
2366,3059667.806561134
4114,34425211.599305
4126,16609523.928583309
4162,14199365.105798254
4222,231970772.353077
4235,16569.56195740442
4350,0.0
4471,199965.1497707958
2,2, 1, 2, 0,12, 0.00,60.00,Friday
11,296101314.2670898
47,129205563.25627288
71,76263963.25627291
346,52941599.9999999
993,122509259.99999996
1017,122509259.99999996
1497,204636841.0771597
1533,11952079.865633984
1557,11952079.865633984
2228,10549921.520999497
2366,3913584.412323594
4114,33624085.00964041
4126,16849502.209136376
4162,14199365.105798254
4222,188771176.79920206
4235,13719.743421689474
4350,0.0
4471,198764.73675532937
2,2, 1, 2, 0,13, 0.00,60.00,Friday
11,298231774.9679692
47,129140348.07770197
71,76198748.07770199
346,52941599.9999999
993,122509259.99999996
1017,122509259.99999996
1497,217379511.3409201
1533,11952079.865633984
1557,11952079.865633984
2228,12355228.146224393
2366,4390422.170588079
4114,34013935.88572817
4126,16913130.15884862
4162,14199365.105798254
4222,201037009.30469803
4235,14168.788977040536
4350,0.0
4471,198834.06933783627
2,2, 1, 2, 0,14, 0.00,60.00,Friday
11,298826229.33399429
47,129374212.86158991
71,76432612.86158994
346,52941599.9999999
993,122509259.99999996
1017,122509259.99999996
1497,254176750.63845025
1533,513194.69713651677
1557,513194.69713651677
2228,11445372.028396082
2366,4025433.912028496
4114,35278444.16400996
4126,16961952.134090809
4162,14199365.105798254
4222,249638122.02928523
4235,18450.67266998122
4350,0.0
4471,200489.6073283318
2,2, 1, 2, 0,15, 0.00,60.00,Friday
11,297843570.5008527
47,129542769.34391684
71,76601169.34391687
346,52941599.9999999
993,122509259.99999996
1017,122509259.99999996
1497,273711622.1225627
1533,427662.2476137639
1557,427662.2476137639
2228,9673531.459342115
2366,3430088.367358361
4114,35896784.74635233
4126,17045188.108672274
4162,14199365.105798254
4222,269853871.5075906
4235,19781.609608142564
4350,0.0
4471,201443.34163331579
2,2, 1, 2, 0,16, 0.00,60.00,Friday
11,295910403.3334464
47,129434544.08649394
71,76492944.08649397
346,52941599.9999999
993,122509259.99999996
1017,122509259.99999996
1497,253330962.11010439
1533,427662.2476137639
1557,427662.2476137639
2228,7993897.690065546
2366,3154882.257932698
4114,35753631.40588778
4126,17468426.622969629
4162,14199365.105798254
4222,249748417.60455794
4235,18412.164613637335
4350,0.0
4471,200657.98638552617
2,2, 1, 2, 0,17, 0.00,60.00,Friday
11,297615028.0955928
47,130495015.7270489
71,77553415.72704894
346,52941599.9999999
993,122509259.99999996
1017,122509259.99999996
1497,260263536.43345053
1533,29024875.168857416
1557,29024875.168857416
2228,9244107.32880867
2366,3214145.0457251558
4114,35149827.750186357
4126,17357766.668147755
4162,14199365.105798254
4222,228024516.21886794
4235,16875.351765745967
4350,0.0
4471,199941.9377832079
2,2, 1, 2, 0,18, 0.00,60.00,Friday
11,285482421.2250694
47,123776342.99999996
71,70834742.99999997
346,52941599.9999999
993,118102859.99999997
1017,118102859.99999997
1497,255380369.99965013
1533,29024875.168857416
1557,29024875.168857416
2228,8737280.921474517
2366,3214005.3659695617
4114,34650598.37228916
4126,16998428.333251485
4162,14199365.105798254
4222,223141489.4648232
4235,15884.070498902644
4350,0.0
4471,199454.86080699889
2,2, 1, 2, 0,19, 0.00,60.00,Friday
11,319122936.0604074
47,143344268.99999986
71,47505068.99999999
346,95839199.99999984
993,135564839.99999989
1017,135564839.99999989
1497,218591022.41254188
1533,28597212.921243654
1557,28597212.921243654
2228,8304872.170652958
2366,2722852.673877398
4114,31688122.19342705
4126,16687135.507914084
4162,14199365.105798254
4222,187270956.8174208
4235,19640.094316839022
4350,0.0
4471,201192.60201078963
2,2, 1, 2, 0,20, 0.00,60.00,Friday
11,373288184.20676949
47,171942668.99999974
71,47505068.99999999
346,124437599.9999998
993,164163239.99999974
1017,164163239.99999974
1497,178283503.5130489
1533,0.0
1557,0.0
2228,6103463.284502955
2366,2443151.69695366
4114,30856802.454443329
4126,16554471.929415156
4162,14199365.105798254
4222,175840351.81609524
4235,20247.07660104912
4350,0.0
4471,201762.39122251346
2,2, 1, 2, 0,21, 0.00,60.00,Friday
11,386904034.16494098
47,180270629.9999997
71,41533829.999999988
346,138736799.9999998
993,169616699.99999974
1017,169616699.99999974
1497,180133792.4630195
1533,0.0
1557,0.0
2228,6043739.626850628
2366,2441001.15297799
4114,30749983.969913648
4126,16519577.605455207
4162,14199365.105798254
4222,177692791.3100415
4235,20832.63532216272
4350,0.0
4471,202147.93285497064
2,2, 1, 2, 0,22, 0.00,60.00,Friday
11,305163875.09503439
47,143777915.9999998
71,19340315.999999998
346,124437599.9999998
993,132085079.9999998
1017,132085079.9999998
1497,62576140.59223443
1533,0.0
1557,0.0
2228,4586109.436104447
2366,1700936.6868462805
4114,24714769.658930229
4126,10490501.918585619
4162,14199365.105798254
4222,60875203.905388157
4235,0.0
4350,0.0
4471,0.0
2,2, 1, 2, 0,23, 0.00,60.00,Friday
11,214773922.69303037
47,96788438.99999984
71,5971238.999999999
346,90817199.99999984
993,90768869.99999985
1017,90768869.99999985
1497,61553160.21047102
1533,0.0
1557,0.0
2228,2526746.668646763
2366,1414227.3244958753
4114,24689867.024383874
4126,10490501.918585619
4162,14199365.105798254
4222,60138932.885975148
4235,0.0
4350,0.0
4471,0.0
2,2, 1, 2, 0,24, 0.00,60.00,Friday
11,126382918.56510049
47,52754678.99999992
71,4835078.999999999
346,47919599.99999992
993,47320469.999999929
1017,47320469.999999929
1497,61375613.79307889
1533,0.0
1557,0.0
2228,1617902.54071667
2366,1236680.9071037495
4114,24689867.024383874
4126,10490501.918585619
4162,14199365.105798254
4222,60138932.885975148
4235,0.0
4350,0.0
4471,0.0
2,3, 1, 3, 0, 1, 0.00,60.00,Saturday
11,68021854.56767123
47,24156278.99999996
71,4835078.999999999
346,19321199.999999968
993,18722069.99999997
1017,18722069.99999997
1497,1327652.7564062929
1533,0.0
1557,0.0
2228,2485799.1222608906
2366,1327652.7564062929
4114,22657706.44541039
4126,8458341.339612136
4162,14199365.105798254
4222,0.0
4235,0.0
4350,0.0
4471,0.0
2,3, 1, 3, 0, 2, 0.00,60.00,Saturday
11,67180088.79168207
47,24156278.99999996
71,4835078.999999999
346,19321199.999999968
993,18722069.99999997
1017,18722069.99999997
1497,1321402.7350052433
1533,0.0
1557,0.0
2228,1644033.346271715
2366,1321402.7350052433
4114,22657706.44541039
4126,8458341.339612136
4162,14199365.105798254
4222,0.0
4235,0.0
4350,0.0
4471,0.0
2,3, 1, 3, 0, 3, 0.00,60.00,Saturday
11,67154400.81503192
47,24156278.99999996
71,4835078.999999999
346,19321199.999999968
993,18722069.99999997
1017,18722069.99999997
1497,1046836.3803840899
1533,0.0
1557,0.0
2228,1618345.3696215798
2366,1046836.3803840899
4114,22657706.44541039
4126,8458341.339612136
4162,14199365.105798254
4222,0.0
4235,0.0
4350,0.0
4471,0.0
2,3, 1, 3, 0, 4, 0.00,60.00,Saturday
11,66332574.23681056
47,24156278.99999996
71,4835078.999999999
346,19321199.999999968
993,18722069.99999997
1017,18722069.99999997
1497,1037474.9714079291
1533,0.0
1557,0.0
2228,796518.791400218
2366,1037474.9714079291
4114,22657706.44541039
4126,8458341.339612136
4162,14199365.105798254
4222,0.0
4235,0.0
4350,0.0
4471,0.0
2,3, 1, 3, 0, 5, 0.00,60.00,Saturday
11,67129307.26928205
47,24156278.99999996
71,4835078.999999999
346,19321199.999999968
993,18722069.99999997
1017,18722069.99999997
1497,1296701.4408635689
1533,0.0
1557,0.0
2228,1593251.823871714
2366,1296701.4408635689
4114,22657706.44541039
4126,8458341.339612136
4162,14199365.105798254
4222,0.0
4235,0.0
4350,0.0
4471,0.0
2,3, 1, 3, 0, 6, 0.00,60.00,Saturday
11,125573166.13866449
47,52754678.99999992
71,4835078.999999999
346,47919599.99999992
993,47320469.999999929
1017,47320469.999999929
1497,62459126.457053009
1533,0.0
1557,0.0
2228,796599.2455375082
2366,1043553.939619001
4114,24701417.89312702
4126,10490501.918585619
4162,14199365.105798254
4222,61415572.51743401
4235,0.0
4350,0.0
4471,0.0
2,3, 1, 3, 0, 7, 0.00,60.00,Saturday
11,200145219.62865145
47,80361638.99999988
71,5971238.999999999
346,74390399.99999988
993,69320069.9999999
1017,69320069.9999999
1497,744928069.2153711
1533,28597212.921243654
1557,28597212.921243654
2228,1605496.6544071437
2366,1244622.6239466449
4114,48108774.1023434
4126,20817335.90109158
4162,14199365.105798254
4222,715086233.6701809
4235,76090.26597765649
4350,0.0
4471,673149.6059234437
2,3, 1, 3, 0, 8, 0.00,60.00,Saturday
11,196764986.9245135
47,83620577.50159049
71,9230177.501590616
346,74390399.99999988
993,73192139.99999988
1017,73192139.99999988
1497,512017209.6145948
1533,28597212.921243654
1557,28597212.921243654
2228,3573696.988232052
2366,1755072.08687864
4114,36022879.55806683
4126,16522917.820863599
4162,14199365.105798254
4222,481664924.6064726
4235,58724.3056183484
4350,0.0
4471,296968.57100589849
2,3, 1, 3, 0, 9, 0.00,60.00,Saturday
11,230443423.05061434
47,101373680.98326472
71,26983280.98326485
346,74390399.99999988
993,90883619.99999987
1017,90883619.99999987
1497,372107276.7809986
1533,285108.16507584266
1557,285108.16507584266
2228,4628910.941147437
2366,2026329.7139279908
4114,33268624.206795254
4126,16519577.605455207
4162,14199365.105798254
4222,369795838.9019948
4235,46559.274179407876
4350,0.0
4471,242027.6452276182
2,3, 1, 3, 0,10, 0.00,60.00,Saturday
11,269558852.8900894
47,117931552.3151332
71,43541152.31513332
346,74390399.99999988
993,114116039.99999988
1017,114116039.99999988
1497,236170044.20815749
1533,285108.16507584266
1557,285108.16507584266
2228,5483573.111133518
2366,2087227.9101656969
4114,31793085.173662958
4126,16563732.646531087
4162,14199365.105798256
4222,233797708.13291598
4235,26577.026694285596
4350,0.0
4471,208025.2634655247
2,3, 1, 3, 0,11, 0.00,60.00,Saturday
11,271926858.33891907
47,116379206.10812593
71,63437606.10812594
346,52941599.9999999
993,115899659.99999997
1017,115899659.99999997
1497,167063253.02431346
1533,513194.69713651677
1557,513194.69713651677
2228,7998005.083429936
2366,2903216.907056421
4114,31433945.629994204
4126,16667020.188433439
4162,14199365.105798254
4222,163646841.4201205
4235,16205.205218140705
4350,0.0
4471,199836.3121510222
2,3, 1, 3, 0,12, 0.00,60.00,Saturday
11,274769412.60146299
47,116552828.22243536
71,63611228.22243536
346,52941599.9999999
993,115899659.99999997
1017,115899659.99999997
1497,139801110.1711018
1533,11952079.865633984
1557,11952079.865633984
2228,10148505.9401319
2366,3154748.704087911
4114,31419454.477818666
4126,16937377.47303901
4162,14199365.105798254
4222,124694281.60137993
4235,11021.55457225219
4350,539600.3410291227
4471,198342.06547574263
2,3, 1, 3, 0,13, 0.00,60.00,Saturday
11,272904243.45764836
47,113439465.50495547
71,60497865.504955489
346,52941599.9999999
993,114247259.99999997
1017,114247259.99999997
1497,126630238.24139984
1533,11952079.865633984
1557,11952079.865633984
2228,10814902.463092402
2366,3588771.738772206
4114,31755747.7150264
4126,17023944.306800616
4162,14199365.105798254
4222,111089386.63699365
4235,9188.1740046633
4350,2439514.6198868865
4471,198164.98068261654
2,3, 1, 3, 0,14, 0.00,60.00,Saturday
11,276184156.98305997
47,113355794.01978979
71,60414194.019789788
346,52941599.9999999
993,114247259.99999997
1017,114247259.99999997
1497,90637356.52366337
1533,513194.69713651677
1557,513194.69713651677
2228,11609415.536211346
2366,3556381.567709339
4114,32576855.8908988
4126,17530647.819478278
4162,14199365.105798254
4222,86567780.25881753
4235,5153.863000002794
4350,4191337.5142685745
4471,198340.1588915234
2,3, 1, 3, 0,15, 0.00,60.00,Saturday
11,274537892.6120805
47,113097909.34311696
71,60156309.34311698
346,52941599.9999999
993,114247259.99999997
1017,114247259.99999997
1497,68486940.34287475
1533,427662.2476137639
1557,427662.2476137639
2228,8990466.293264937
2366,2973490.061211035
4114,33274472.453437207
4126,18120703.9887276
4162,14199365.105798254
4222,65085788.03404995
4235,1667.5363743507253
4350,4727322.86892896
4471,198794.11695825938
2,3, 1, 3, 0,16, 0.00,60.00,Saturday
11,274776968.47645017
47,113412552.91857553
71,60470952.91857554
346,52941599.9999999
993,114247259.99999997
1017,114247259.99999997
1497,56503911.80632946
1533,427662.2476137639
1557,427662.2476137639
2228,9447003.007216795
2366,2761346.139616527
4114,33460950.498730594
4126,18452892.26568832
4162,14199365.105798254
4222,53314903.41909916
4235,483.8953196223255
4350,4009682.585606972
4471,199035.57100072696
2,3, 1, 3, 0,17, 0.00,60.00,Saturday
11,276504537.5394972
47,117755833.69565727
71,64814233.69565728
346,52941599.9999999
993,114247259.99999997
1017,114247259.99999997
1497,83859473.57863149
1533,29024875.168857416
1557,29024875.168857416
2228,9186958.043283284
2366,2877625.1293653135
4114,33205537.631307398
4126,18621328.65209562
4162,14199365.105798254
4222,51956973.280408758
4235,478.4444695038635
4350,1909433.2790269608
4471,199036.44575291244
2,3, 1, 3, 0,18, 0.00,60.00,Saturday
11,265656466.1212278
47,111937382.99999996
71,64017782.99999998
346,47919599.99999992
993,113145659.99999997
1017,113145659.99999997
1497,102164564.31604614
1533,28597212.921243654
1557,28597212.921243654
2228,8226896.017999795
2366,2882902.9713929288
4114,32093536.511872055
4126,17883725.33668773
4162,14199365.105798254
4222,70684448.42340955
4235,2470.384741982365
4350,51856.97343141448
4471,198663.23318272786
2,3, 1, 3, 0,19, 0.00,60.00,Saturday
11,293722101.154286
47,128942549.99999987
71,38125349.999999988
346,90817199.99999984
993,125066699.99999988
1017,125066699.99999988
1497,159499768.77768667
1533,28597212.921243654
1557,28597212.921243654
2228,8779422.631172875
2366,2533135.0283333288
4114,30722575.35353112
4126,16523210.247732863
4162,14199365.105798254
4222,128369420.82810965
4235,12360.02877286357
4350,0.0
4471,198493.14080947994
2,3, 1, 3, 0,20, 0.00,60.00,Saturday
11,316284007.1709986
47,142745273.9999998
71,23329673.999999994
346,119415599.9999998
993,138176819.9999998
1017,138176819.9999998
1497,113787679.80023204
1533,0.0
1557,0.0
2228,6454008.2384597039
2366,2422970.25882235
4114,28686782.132279979
4126,14487417.026481722
4162,14199365.105798254
4222,111364709.5414097
4235,19938.785326980273
4350,0.0
4471,201184.01493226848
2,3, 1, 3, 0,21, 0.00,60.00,Saturday
11,344249494.76090249
47,157044473.99999977
71,23329673.999999994
346,133714799.99999979
993,152476019.99999977
1017,152476019.99999977
1497,137218587.2455663
1533,0.0
1557,0.0
2228,5814746.477262815
2366,2042362.6087964788
4114,28686782.132279979
4126,14487417.026481722
4162,14199365.105798254
4222,135176224.6367698
4235,24202.00919522013
4350,0.0
4471,203270.14216479928
2,3, 1, 3, 0,22, 0.00,60.00,Saturday
11,283549225.8317443
47,127949597.9999998
71,8533997.999999999
346,119415599.9999998
993,122688539.9999998
1017,122688539.9999998
1497,194681745.55473618
1533,0.0
1557,0.0
2228,3976816.2732925119
2366,1696058.4474550596
4114,28686782.132279979
4126,14487417.026481722
4162,14199365.105798254
4222,192985687.10728113