Program Version,EnergyPlus, Version 9.0.1-bb7ca4f0da, YMD=2019.12.02 18:30
1,5,Environment Title[],Latitude[deg],Longitude[deg],Time Zone[],Elevation[m]
2,8,Day of Simulation[],Month[],Day of Month[],DST Indicator[1=yes 0=no],Hour[],StartMinute[],EndMinute[],DayType
3,5,Cumulative Day of Simulation[],Month[],Day of Month[],DST Indicator[1=yes 0=no],DayType  ! When Daily Meters Requested
4,2,Cumulative Days of Simulation[],Month[]  ! When Monthly Meters Requested
5,1,Cumulative Days of Simulation[] ! When Run Period Meters Requested
6,1,Calendar Year of Simulation[] ! When Annual Meters Requested
345,1,NonComplianceLtg:InteriorLights:Electricity [J] !Hourly
992,1,InteriorEquipment:Electricity [J] !Hourly
2365,1,WaterSystems:Gas [J] !Hourly
1532,1,InteriorEquipment:Gas [J] !Hourly
10,1,Electricity:Facility [J] !Hourly
46,1,InteriorLights:Electricity [J] !Hourly
4121,1,Fans:Electricity [J] !Hourly
4480,1,Pumps:Electricity [J] !Hourly
4243,1,Heating:Electricity [J] !Hourly
4354,1,Cooling:Electricity [J] !Hourly
2227,1,WaterSystems:Electricity [J] !Hourly
1496,1,Gas:Facility [J] !Hourly
4230,1,Heating:Gas [J] !Hourly
1016,1,Receptacle:InteriorEquipment:Electricity [J] !Hourly
1556,1,Receptacle:InteriorEquipment:Gas [J] !Hourly
70,1,ComplianceLtg:InteriorLights:Electricity [J] !Hourly
4133,1,General:Fans:Electricity [J] !Hourly
4170,1,ProcessMotors:Fans:Electricity [J] !Hourly
End of Data Dictionary
1,SAN-JOSE-INTL-AP ANN CLG 0.4% CONDNS DB=>MCWB,  37.37,-121.93,  -8.00,  16.00
2,1, 8,21, 0, 1, 0.00,60.00,SummerDesignDay
10,660899104.5577495
46,249737579.99999974
70,96701579.99999997
345,153035999.9999997
992,231449399.99999977
1016,231449399.99999977
1496,64209222.077440138
1532,57764642.17263899
1556,57764642.17263899
2227,18205069.005501488
2365,6444579.904801143
4121,234.46590213589097
4133,40.40896085513719
4170,146.493945049916
4230,0.0
4243,0.0
4354,161506821.08634586
4480,0.0
2,1, 8,21, 0, 2, 0.00,60.00,SummerDesignDay
10,653531796.0286036
46,249737579.99999974
70,96701579.99999997
345,153035999.9999997
992,231449399.99999977
1016,231449399.99999977
1496,64209038.355073008
1532,57764642.17263899
1556,57764642.17263899
2227,18877944.467855883
2365,6444396.182434021
4121,232.7332431524974
4133,40.42009782219952
4170,146.493945049916
4230,0.0
4243,0.0
4354,153466638.8275047
4480,0.0
2,1, 8,21, 0, 3, 0.00,60.00,SummerDesignDay
10,648284244.7465344
46,249737579.99999974
70,96701579.99999997
345,153035999.9999997
992,231449399.99999977
1016,231449399.99999977
1496,64209048.12457888
1532,57764642.17263899
1556,57764642.17263899
2227,19061461.126345684
2365,6444405.951939894
4121,231.6175855637522
4133,40.42767841193348
4170,146.493945049916
4230,0.0
4243,0.0
4354,148035572.0026031
4480,0.0
2,1, 8,21, 0, 4, 0.00,60.00,SummerDesignDay
10,643536988.6682742
46,249737579.99999974
70,96701579.99999997
345,153035999.9999997
992,231449399.99999977
1016,231449399.99999977
1496,64208985.66697355
1532,57764642.17263899
1556,57764642.17263899
2227,19060198.805626647
2365,6444343.494334564
4121,230.6546662075537
4133,40.43366616394959
4170,146.493945049916
4230,0.0
4243,0.0
4354,143289579.20798124
4480,0.0
2,1, 8,21, 0, 5, 0.00,60.00,SummerDesignDay
10,639528054.3336706
46,249737579.99999974
70,96701579.99999997
345,153035999.9999997
992,231449399.99999977
1016,231449399.99999977
1496,64208934.816126149
1532,57764642.17263899
1556,57764642.17263899
2227,18843869.663593215
2365,6444292.643487154
4121,229.86056823986429
4133,40.438343773692839
4170,146.493945049916
4230,0.0
4243,0.0
4354,139496974.8095091
4480,0.0
2,1, 8,21, 0, 6, 0.00,60.00,SummerDesignDay
10,656171549.0647459
46,249737579.99999974
70,96701579.99999997
345,153035999.9999997
992,231449399.99999977
1016,231449399.99999977
1496,64208889.11696108
1532,57764642.17263899
1556,57764642.17263899
2227,18239591.240083085
2365,6444246.944322088
4121,237.06875756265817
4133,46.65118482215441
4170,146.493945049916
4230,0.0
4243,0.0
4354,156744740.7559054
4480,0.0
2,1, 8,21, 0, 7, 0.00,60.00,SummerDesignDay
10,721521235.2492879
46,249737579.99999974
70,96701579.99999997
345,153035999.9999997
992,231449399.99999977
1016,231449399.99999977
1496,64222257.72928953
1532,57764642.17263899
1556,57764642.17263899
2227,19061791.089977456
2365,6457615.556650544
4121,276.38795281165707
4133,76.01475920980103
4170,146.493945049916
4230,0.0
4243,0.0
4354,221272187.77135767
4480,0.0
2,1, 8,21, 0, 8, 0.00,60.00,SummerDesignDay
10,741483386.28894
46,249737579.99999974
70,96701579.99999997
345,153035999.9999997
992,231449399.99999977
1016,231449399.99999977
1496,64260717.87624028
1532,57764642.17263899
1556,57764642.17263899
2227,19061295.704746725
2365,6496075.7036013
4121,271.72021710497349
4133,60.694522975654219
4170,146.493945049916
4230,0.0
4243,0.0
4354,241234838.8639761
4480,0.0
2,1, 8,21, 0, 9, 0.00,60.00,SummerDesignDay
10,776923845.8232023
46,249737579.99999974
70,96701579.99999997
345,153035999.9999997
992,231449399.99999977
1016,231449399.99999977
1496,64260822.28619274
1532,57764642.17263899
1556,57764642.17263899
2227,19060876.57606168
2365,6496180.113553748
4121,281.53237736205326
4133,59.02882600293628
4170,146.493945049916
4230,0.0
4243,0.0
4354,276675707.71476319
4480,0.0
2,1, 8,21, 0,10, 0.00,60.00,SummerDesignDay
10,810570896.7695127
46,249737579.99999974
70,96701579.99999997
345,153035999.9999997
992,231449399.99999977
1016,231449399.99999977
1496,64260841.528180148
1532,57764642.17263899
1556,57764642.17263899
2227,18624739.001542376
2365,6496199.3555411589
4121,291.2345800369417
4133,59.54672411270387
4170,146.493945049916
4230,0.0
4243,0.0
4354,310758886.5333902
4480,0.0
2,1, 8,21, 0,11, 0.00,60.00,SummerDesignDay
10,837612117.7294915
46,249737579.99999974
70,96701579.99999997
345,153035999.9999997
992,231449399.99999977
1016,231449399.99999977
1496,64260870.99859223
1532,57764642.17263899
1556,57764642.17263899
2227,18458699.566945156
2365,6496228.825953242
4121,297.3082792452309
4133,60.00330945914665
4170,146.493945049916
4230,0.0
4243,0.0
4354,337966140.854267
4480,0.0
2,1, 8,21, 0,12, 0.00,60.00,SummerDesignDay
10,857840279.9290873
46,249737579.99999974
70,96701579.99999997
345,153035999.9999997
992,231449399.99999977
1016,231449399.99999977
1496,64260893.47811548
1532,57764642.17263899
1556,57764642.17263899
2227,19061941.18480835
2365,6496251.305476484
4121,300.96333414360665
4133,60.39481580090686
4170,146.493945049916
4230,0.0
4243,0.0
4354,357591057.7809447
4480,0.0
2,1, 8,21, 0,13, 0.00,60.00,SummerDesignDay
10,874484419.9422544
46,249737579.99999974
70,96701579.99999997
345,153035999.9999997
992,231449399.99999977
1016,231449399.99999977
1496,64260833.38128707
1532,57764642.17263899
1556,57764642.17263899
2227,19060472.007655816
2365,6496191.208648083
4121,304.68058347574006
4133,60.88615074939408
4170,146.493945049916
4230,0.0
4243,0.0
4354,374236663.2540152
4480,0.0
2,1, 8,21, 0,14, 0.00,60.00,SummerDesignDay
10,891490127.969924
46,249737579.99999974
70,96701579.99999997
345,153035999.9999997
992,231449399.99999977
1016,231449399.99999977
1496,64260876.11473204
1532,57764642.17263899
1556,57764642.17263899
2227,19060799.292319679
2365,6496233.942093048
4121,310.0104176270986
4133,61.799092141193629
4170,146.493945049916
4230,0.0
4243,0.0
4354,391242038.6671867
4480,0.0
2,1, 8,21, 0,15, 0.00,60.00,SummerDesignDay
10,905728637.4506142
46,249737579.99999974
70,96701579.99999997
345,153035999.9999997
992,231449399.99999977
1016,231449399.99999977
1496,64260941.24579199
1532,57764642.17263899
1556,57764642.17263899
2227,18405500.987382257
2365,6496299.073153001
4121,316.80694834296096
4133,63.267629111596708
4170,146.493945049916
4230,0.0
4243,0.0
4354,406135839.6562837
4480,0.0
2,1, 8,21, 0,16, 0.00,60.00,SummerDesignDay
10,907335615.9330752
46,249737579.99999974
70,96701579.99999997
345,153035999.9999997
992,231449399.99999977
1016,231449399.99999977
1496,64261028.68303577
1532,57764642.17263899
1556,57764642.17263899
2227,18677787.425876414
2365,6496386.510396778
4121,319.78924321431097
4133,64.10678595878706
4170,146.493945049916
4230,0.0
4243,0.0
4354,407470528.71795549
4480,0.0
2,1, 8,21, 0,17, 0.00,60.00,SummerDesignDay
10,891763517.0885632
46,249737579.99999974
70,96701579.99999997
345,153035999.9999997
992,231449399.99999977
1016,231449399.99999977
1496,64260915.175013218
1532,57764642.17263899
1556,57764642.17263899
2227,19061627.14954473
2365,6496273.002374221
4121,315.7104362455557
4133,63.803472503560829
4170,146.493945049916
4230,0.0
4243,0.0
4354,391514594.2285824
4480,0.0
2,1, 8,21, 0,18, 0.00,60.00,SummerDesignDay
10,868629953.4616366
46,249737579.99999974
70,96701579.99999997
345,153035999.9999997
992,231449399.99999977
1016,231449399.99999977
1496,64260875.136344488
1532,57764642.17263899
1556,57764642.17263899
2227,19060174.422072185
2365,6496232.963705498
4121,308.3706445631143
4133,62.36471340740685
4170,146.493945049916
4230,0.0
4243,0.0
4354,368382490.66892
4480,0.0
2,1, 8,21, 0,19, 0.00,60.00,SummerDesignDay
10,822981524.905807
46,249737579.99999974
70,96701579.99999997
345,153035999.9999997
992,231449399.99999977
1016,231449399.99999977
1496,64260909.60574815
1532,57764642.17263899
1556,57764642.17263899
2227,19044153.15831576
2365,6496267.4331091609
4121,290.53835573657576
4133,59.18201921213176
4170,146.493945049916
4230,0.0
4243,0.0
4354,322750101.2091354
4480,0.0
2,1, 8,21, 0,20, 0.00,60.00,SummerDesignDay
10,780259792.1566821
46,249737579.99999974
70,96701579.99999997
345,153035999.9999997
992,231449399.99999977
1016,231449399.99999977
1496,64260966.52078064
1532,57764642.17263899
1556,57764642.17263899
2227,18204514.322865335
2365,6496324.348141654
4121,274.25195670997086
4133,56.28624494316022
4170,146.493945049916
4230,0.0
4243,0.0
4354,280868023.5818602
4480,0.0
2,1, 8,21, 0,21, 0.00,60.00,SummerDesignDay
10,754673886.8534777
46,249737579.99999974
70,96701579.99999997
345,153035999.9999997
992,231449399.99999977
1016,231449399.99999977
1496,64230109.874564807
1532,57764642.17263899
1556,57764642.17263899
2227,18895909.850430509
2365,6465467.701925816
4121,264.6999850930816
4133,54.42262604087199
4170,146.493945049916
4230,0.0
4243,0.0
4354,254590732.3030621
4480,0.0
2,1, 8,21, 0,22, 0.00,60.00,SummerDesignDay
10,713968846.3443271
46,249737579.99999974
70,96701579.99999997
345,153035999.9999997
992,231449399.99999977
1016,231449399.99999977
1496,64209044.313194397
1532,57764642.17263899
1556,57764642.17263899
2227,19062327.485654039
2365,6444402.1405554
4121,248.83740481784768
4133,44.189370466932988
4170,146.493945049916
4230,0.0
4243,0.0
4354,213719290.0212681
4480,0.0
2,1, 8,21, 0,23, 0.00,60.00,SummerDesignDay
10,698210547.2253665
46,249737579.99999974
70,96701579.99999997
345,153035999.9999997
992,231449399.99999977
1016,231449399.99999977
1496,64209130.2387042
1532,57764642.17263899
1556,57764642.17263899
2227,19060713.226507237
2365,6444488.066065206
4121,244.2137846615983
4133,43.8766419713958
4170,146.493945049916
4230,0.0
4243,0.0
4354,197962609.7850746
4480,0.0
2,1, 8,21, 0,24, 0.00,60.00,SummerDesignDay
10,684136952.9614741
46,249737579.99999974
70,96701579.99999997
345,153035999.9999997
992,231449399.99999977
1016,231449399.99999977
1496,64209008.567089159
1532,57764642.17263899
1556,57764642.17263899
2227,18824615.674886757
2365,6444366.394450167
4121,240.51124355160904
4133,43.62395977110769
4170,146.493945049916
4230,0.0
4243,0.0
4354,184125116.77534358
4480,0.0
1,SAN-JOSE-INTL-AP ANN CLG 0.4% CONDNS DP=>MCDB,  37.37,-121.93,  -8.00,  16.00
2,1, 8,21, 0, 1, 0.00,60.00,SummerDesignDay
10,538637158.2368957
46,249737579.99999974
70,96701579.99999997
345,153035999.9999997
992,231449399.99999977
1016,231449399.99999977
1496,65344044.794172588
1532,57764642.17263899
1556,57764642.17263899
2227,18204873.665140194
2365,6444461.185538175
4121,208.51143365014435
4133,40.37564240098098
4170,146.493945049916
4230,1134941.4359954233
4243,0.0
4354,39245096.06032188
4480,0.0
2,1, 8,21, 0, 2, 0.00,60.00,SummerDesignDay
10,533287654.0772491
46,249737579.99999974
70,96701579.99999997
345,153035999.9999997
992,231449399.99999977
1016,231449399.99999977
1496,77086808.78506617
1532,57764642.17263899
1556,57764642.17263899
2227,18878058.97764115
2365,6444396.764260637
4121,205.97708042897313
4133,40.38051079087518
4170,146.493945049916
4230,12877769.848166548
4243,0.0
4354,33222409.122527616
4480,0.0
2,1, 8,21, 0, 3, 0.00,60.00,SummerDesignDay
10,530113291.94041809
46,249737579.99999974
70,96701579.99999997
345,153035999.9999997
992,231449399.99999977
1016,231449399.99999977
1496,88779353.60730024
1532,57764642.17263899
1556,57764642.17263899
2227,19061461.062207875
2365,6444405.627059886
4121,204.12761344006879
4133,40.38340037935353
4170,146.493945049916
4230,24570305.807601364
4243,0.0
4354,29864646.750596674
4480,0.0
2,1, 8,21, 0, 4, 0.00,60.00,SummerDesignDay
10,527279853.5265007
46,249737579.99999974
70,96701579.99999997
345,153035999.9999997
992,231449399.99999977
1016,231449399.99999977
1496,99475588.91859046
1532,57764642.17263899
1556,57764642.17263899
2227,19060198.87746972
2365,6444343.225127926
4121,202.5587439764315
4133,40.38514079341848
4170,146.493945049916
4230,35266603.52082353
4243,0.0
4354,27032472.090287009
4480,0.0
2,1, 8,21, 0, 5, 0.00,60.00,SummerDesignDay
10,524913986.6457739
46,249737579.99999974
70,96701579.99999997
345,153035999.9999997
992,231449399.99999977
1016,231449399.99999977
1496,106519170.67521252
1532,57764642.17263899
1556,57764642.17263899
2227,18843754.946126246
2365,6444292.429031062
4121,201.36698225976932
4133,40.3861353811196
4170,146.493945049916
4230,42310236.07354248
4243,0.0
4354,24883050.332665389
4480,0.0
2,1, 8,21, 0, 6, 0.00,60.00,SummerDesignDay
10,538096531.294688
46,249737579.99999974
70,96701579.99999997
345,153035999.9999997
992,231449399.99999977
1016,231449399.99999977
1496,96998194.18014254
1532,57764642.17263899
1556,57764642.17263899
2227,18239701.098435999
2365,6444262.172785167
4121,205.65545346730347
4133,43.87419608050358
4170,146.493945049916
4230,32789289.83471839
4243,0.0
4354,38669644.5407985
4480,0.0
2,1, 8,21, 0, 7, 0.00,60.00,SummerDesignDay
10,590653525.6326132
46,249737579.99999974
70,96701579.99999997
345,153035999.9999997
992,231449399.99999977
1016,231449399.99999977
1496,67745593.50180575
1532,57764642.17263899
1556,57764642.17263899
2227,19061702.011564066
2365,6457374.740985708
4121,225.42644923564184
4133,53.664582875612158
4170,146.493945049916
4230,3523576.5881810595
4243,0.0
4354,90404618.19459984
4480,0.0
2,1, 8,21, 0, 8, 0.00,60.00,SummerDesignDay
10,619353937.4933434
46,249737579.99999974
70,96701579.99999997
345,153035999.9999997
992,231449399.99999977
1016,231449399.99999977
1496,64768823.09279055
1532,57764642.17263899
1556,57764642.17263899
2227,19061296.140429677
2365,6496075.24458883
4121,233.26031668141384
4133,49.20115135696685
4170,146.493945049916
4230,508105.6755627327
4243,0.0
4354,119105428.09259707
4480,0.0
2,1, 8,21, 0, 9, 0.00,60.00,SummerDesignDay
10,668007228.7654238
46,249737579.99999974
70,96701579.99999997
345,153035999.9999997
992,231449399.99999977
1016,231449399.99999977
1496,64260822.44768678
1532,57764642.17263899
1556,57764642.17263899
2227,19060876.81588751
2365,6496180.275047792
4121,246.96488167510797
4133,49.60086472893032
4170,146.493945049916
4230,0.0
4243,0.0
4354,167759124.98465459
4480,0.0
2,1, 8,21, 0,10, 0.00,60.00,SummerDesignDay
10,713591723.9521564
46,249737579.99999974
70,96701579.99999997
345,153035999.9999997
992,231449399.99999977
1016,231449399.99999977
1496,64260841.17376077
1532,57764642.17263899
1556,57764642.17263899
2227,18624946.16539946
2365,6496199.001121778
4121,259.1549171412319
4133,50.70872876200185
4170,146.493945049916
4230,0.0
4243,0.0
4354,213779538.6318399
4480,0.0
2,1, 8,21, 0,11, 0.00,60.00,SummerDesignDay
10,743249696.9623569
46,249737579.99999974
70,96701579.99999997
345,153035999.9999997
992,231449399.99999977
1016,231449399.99999977
1496,64260871.261919159
1532,57764642.17263899
1556,57764642.17263899
2227,18458492.234336229
2365,6496229.089280166
4121,266.7111876789968
4133,51.57947311555401
4170,146.493945049916
4230,0.0
4243,0.0
4354,243603958.016833
4480,0.0
2,1, 8,21, 0,12, 0.00,60.00,SummerDesignDay
10,763317851.5060468
46,249737579.99999974
70,96701579.99999997
345,153035999.9999997
992,231449399.99999977
1016,231449399.99999977
1496,64523720.54877913
1532,57764642.17263899
1556,57764642.17263899
2227,19061632.19813697
2365,6496330.642499983
4121,270.95211593614519
4133,52.25868742277825
4170,146.493945049916
4230,262747.7336401562
4243,0.0
4354,263068968.3557939
4480,0.0
2,1, 8,21, 0,13, 0.00,60.00,SummerDesignDay
10,778987347.2018012
46,249737579.99999974
70,96701579.99999997
345,153035999.9999997
992,231449399.99999977
1016,231449399.99999977
1496,64826105.414481919
1532,57764642.17263899
1556,57764642.17263899
2227,19060473.32776858
2365,6496191.095562704
4121,274.70723343669786
4133,52.879396665572539
4170,146.493945049916
4230,565272.1462802249
4243,0.0
4354,278739619.1667993
4480,0.0
2,1, 8,21, 0,14, 0.00,60.00,SummerDesignDay
10,794614241.7053485
46,249737579.99999974
70,96701579.99999997
345,153035999.9999997
992,231449399.99999977
1016,231449399.99999977
1496,64983119.57959849
1532,57764642.17263899
1556,57764642.17263899
2227,19060797.87957521
2365,6496233.748308636
4121,279.7652206793706
4133,53.73036612212799
4170,146.493945049916
4230,722243.6586508623
4243,0.0
4354,294366184.06055256
4480,0.0
2,1, 8,21, 0,15, 0.00,60.00,SummerDesignDay
10,807711852.0957098
46,249737579.99999974
70,96701579.99999997
345,153035999.9999997
992,231449399.99999977
1016,231449399.99999977
1496,65047871.492679808
1532,57764642.17263899
1556,57764642.17263899
2227,18406179.608747424
2365,6496298.799031106
4121,286.30574633506969
4133,54.98654292521485
4170,146.493945049916
4230,786930.5210097085
4243,0.0
4354,308118406.18121626
4480,0.0
2,1, 8,21, 0,16, 0.00,60.00,SummerDesignDay
10,808709937.0438854
46,249737579.99999974
70,96701579.99999997
345,153035999.9999997
992,231449399.99999977
1016,231449399.99999977
1496,65081872.16041285
1532,57764642.17263899
1556,57764642.17263899
2227,18677108.893046008
2365,6496386.156233526
4121,289.2400147779002
4133,55.76634125696898
4170,146.493945049916
4230,820843.831540332
4243,0.0
4354,308845558.91082456
4480,0.0
2,1, 8,21, 0,17, 0.00,60.00,SummerDesignDay
10,793885400.3962072
46,249737579.99999974
70,96701579.99999997
345,153035999.9999997
992,231449399.99999977
1016,231449399.99999977
1496,65186606.447534199
1532,57764642.17263899
1556,57764642.17263899
2227,19061627.896529125
2365,6496273.412559103
4121,285.30921410778219
4133,55.57767746661627
4170,146.493945049916
4230,925690.8623361007
4243,0.0
4354,293636507.1904639
4480,0.0
2,1, 8,21, 0,18, 0.00,60.00,SummerDesignDay
10,772119824.4596758
46,249737579.99999974
70,96701579.99999997
345,153035999.9999997
992,231449399.99999977
1016,231449399.99999977
1496,65366185.41784384
1532,57764642.17263899
1556,57764642.17263899
2227,19060174.958419254
2365,6496232.880173265
4121,278.5411890545769
4133,54.50020321552931
4170,146.493945049916
4230,1105310.3650315803
4243,0.0
4354,271872390.96006736
4480,0.0
2,1, 8,21, 0,19, 0.00,60.00,SummerDesignDay
10,728149171.5198718
46,249737579.99999974
70,96701579.99999997
345,153035999.9999997
992,231449399.99999977
1016,231449399.99999977
1496,65626660.72085179
1532,57764642.17263899
1556,57764642.17263899
2227,19045128.991923259
2365,6496405.649079995
4121,261.3370046302897
4133,52.045611131516739
4170,146.493945049916
4230,1365612.8991328045
4243,0.0
4354,227916801.19094403
4480,0.0
2,1, 8,21, 0,20, 0.00,60.00,SummerDesignDay
10,686360047.0870872
46,249737579.99999974
70,96701579.99999997
345,153035999.9999997
992,231449399.99999977
1016,231449399.99999977
1496,65931012.78862527
1532,57764642.17263899
1556,57764642.17263899
2227,18204662.957083957
2365,6496278.789338074
4121,245.41146798325046
4133,49.77312892143074
4170,146.493945049916
4230,1670091.8266482088
4243,0.0
4354,186968158.71853528
4480,0.0
2,1, 8,21, 0,21, 0.00,60.00,SummerDesignDay
10,657992803.635292
46,249737579.99999974
70,96701579.99999997
345,153035999.9999997
992,231449399.99999977
1016,231449399.99999977
1496,66145134.40016328
1532,57764642.17263899
1556,57764642.17263899
2227,18894179.016660874
2365,6465432.825118718
4121,235.87701572217066
4133,48.27615446266353
4170,146.493945049916
4230,1915059.4024055619
4243,0.0
4354,157911408.74161554
4480,0.0
2,1, 8,21, 0,22, 0.00,60.00,SummerDesignDay
10,609862937.0006431
46,249737579.99999974
70,96701579.99999997
345,153035999.9999997
992,231449399.99999977
1016,231449399.99999977
1496,64209097.62509707
1532,57764642.17263899
1556,57764642.17263899
2227,19062276.71522968
2365,6444455.452458086
4121,224.2240669014165
4133,42.88396249906196
4170,146.49394504991597
4230,0.0
4243,0.0
4354,109613456.06134641
4480,0.0
2,1, 8,21, 0,23, 0.00,60.00,SummerDesignDay
10,587452745.028428
46,249737579.99999974
70,96701579.99999997
345,153035999.9999997
992,231449399.99999977
1016,231449399.99999977
1496,64209213.633970428
1532,57764642.17263899
1556,57764642.17263899
2227,19059970.778890999
2365,6444571.461331437
4121,218.83054224840135
4133,42.59398320745967
4170,146.493945049916
4230,0.0
4243,0.0
4354,87205575.41899458
4480,0.0
2,1, 8,21, 0,24, 0.00,60.00,SummerDesignDay
10,567796047.8676057
46,249737579.99999974
70,96701579.99999997
345,153035999.9999997
992,231449399.99999977
1016,231449399.99999977
1496,64209008.64464806
1532,57764642.17263899
1556,57764642.17263899
2227,18827590.745857009
2365,6444366.472009065
4121,214.2329623601447
4133,42.37533128260305
4170,146.493945049916
4230,0.0
4243,0.0
4354,67781262.88878632
4480,0.0
1,SAN-JOSE-INTL-AP ANN HTG 99.6% CONDNS DB,  37.37,-121.93,  -8.00,  16.00
2,1, 1,21, 0, 1, 0.00,60.00,WinterDesignDay
10,72207.66121904559
46,0.0
70,0.0
345,0.0
992,0.0
1016,0.0
1496,456949204.6839812
1532,0.0
1556,0.0
2227,72000.0
2365,579679.1997937226
4121,207.66121904552512
4133,40.32324332800051
4170,146.493945049916
4230,456369525.48418739
4243,0.0
4354,0.0
4480,0.0
2,1, 1,21, 0, 2, 0.00,60.00,WinterDesignDay
10,72218.2994613408
46,0.0
70,0.0
345,0.0
992,0.0
1016,0.0
1496,538906264.7095603
1532,0.0
1556,0.0
2227,72000.0
2365,833483.936473899
4121,218.29946134072578
4133,40.323243328000518
4170,146.493945049916
4230,538072780.7730864
4243,0.0
4354,0.0
4480,0.0
2,1, 1,21, 0, 3, 0.00,60.00,WinterDesignDay
10,72225.8253861655
46,0.0
70,0.0
345,0.0
992,0.0
1016,0.0
1496,599644744.2103465
1532,0.0
1556,0.0
2227,72000.0
2365,833372.2904352646
4121,225.8253861654225
4133,40.323243328000518
4170,146.493945049916
4230,598811371.9199112
4243,0.0
4354,0.0
4480,0.0
2,1, 1,21, 0, 4, 0.00,60.00,WinterDesignDay
10,72231.53582641034
46,0.0
70,0.0
345,0.0
992,0.0
1016,0.0
1496,654154067.0453076
1532,0.0
1556,0.0
2227,72000.0
2365,833413.0588825962
4121,231.535826410287
4133,40.323243328000518
4170,146.493945049916
4230,653320653.986425
4243,0.0
4354,0.0
4480,0.0
2,1, 1,21, 0, 5, 0.00,60.00,WinterDesignDay
10,72236.0597438619
46,0.0
70,0.0
345,0.0
992,0.0
1016,0.0
1496,701259851.2908093
1532,0.0
1556,0.0
2227,72000.0
2365,833295.4676707607
4121,236.05974386181809
4133,40.323243328000518
4170,146.493945049916
4230,700426555.8231385
4243,0.0
4354,0.0
4480,0.0
2,1, 1,21, 0, 6, 0.00,60.00,WinterDesignDay
10,7026025.13567241
46,0.0
70,0.0
345,0.0
992,0.0
1016,0.0
1496,909513947.635195
1532,0.0
1556,0.0
2227,72000.0
2365,670267.1543730949
4121,261.8172764562546
4133,63.20901529913824
4170,146.493945049916
4230,908843680.480822
4243,0.0
4354,6953763.318395954
4480,0.0
2,1, 1,21, 0, 7, 0.00,60.00,WinterDesignDay
10,14358634.186354857
46,0.0
70,0.0
345,0.0
992,0.0
1016,0.0
1496,1818319250.6988419
1532,0.0
1556,0.0
2227,72000.0
2365,742907.4627525576
4121,397.86514346365058
4133,106.44718804415733
4170,146.493945049916
4230,1817576343.2360895
4243,0.0
4354,14286236.32121139
4480,0.0
2,1, 1,21, 0, 8, 0.00,60.00,WinterDesignDay
10,72314.64737976901
46,0.0
70,0.0
345,0.0
992,0.0
1016,0.0
1496,1501267930.765467
1532,0.0
1556,0.0
2227,72000.0
2365,833457.1247514517
4121,314.64737976894505
4133,43.12108785103176
4170,146.493945049916
4230,1500434473.6407157
4243,0.0
4354,0.0
4480,0.0
2,1, 1,21, 0, 9, 0.00,60.00,WinterDesignDay
10,72295.71038531173
46,0.0
70,0.0
345,0.0
992,0.0
1016,0.0
1496,1337113933.188901
1532,0.0
1556,0.0
2227,72000.0
2365,833339.9809085381
4121,295.710385311692
4133,41.23130315926029
4170,146.493945049916
4230,1336280593.2079926
4243,0.0
4354,0.0
4480,0.0
2,1, 1,21, 0,10, 0.00,60.00,WinterDesignDay
10,72286.2358205896
46,0.0
70,0.0
345,0.0
992,0.0
1016,0.0
1496,1253176570.8523768
1532,0.0
1556,0.0
2227,72000.0
2365,833380.9672567472
4121,286.23582058952356
4133,40.680618385342857
4170,146.493945049916
4230,1252343189.88512
4243,0.0
4354,0.0
4480,0.0
2,1, 1,21, 0,11, 0.00,60.00,WinterDesignDay
10,72280.52746705034
46,0.0
70,0.0
345,0.0
992,0.0
1016,0.0
1496,1201892542.7690874
1532,0.0
1556,0.0
2227,72000.0
2365,833291.9367585644
4121,280.52746705027865
4133,40.52250519135688
4170,146.493945049916
4230,1201059250.8323289
4243,0.0
4354,0.0
4480,0.0
2,1, 1,21, 0,12, 0.00,60.00,WinterDesignDay
10,72276.71269961607
46,0.0
70,0.0
345,0.0
992,0.0
1016,0.0
1496,1167660158.191016
1532,0.0
1556,0.0
2227,72000.0
2365,579602.1892915799
4121,276.71269961600316
4133,40.43480737917836
4170,146.493945049916
4230,1167080556.0017246
4243,0.0
4354,0.0
4480,0.0
2,1, 1,21, 0,13, 0.00,60.00,WinterDesignDay
10,72274.07200917296
46,0.0
70,0.0
345,0.0
992,0.0
1016,0.0
1496,1144700060.7844296
1532,0.0
1556,0.0
2227,72000.0
2365,833383.7050382543
4121,274.07200917290376
4133,40.38139170268502
4170,146.493945049916
4230,1143866677.079391
4243,0.0
4354,0.0
4480,0.0
2,1, 1,21, 0,14, 0.00,60.00,WinterDesignDay
10,72272.2020147701
46,0.0
70,0.0
345,0.0
992,0.0
1016,0.0
1496,1127813846.395247
1532,0.0
1556,0.0
2227,72000.0
2365,833425.1487241564
4121,272.2020147700297
4133,40.34914576733428
4170,146.493945049916
4230,1126980421.2465227
4243,0.0
4354,0.0
4480,0.0
2,1, 1,21, 0,15, 0.00,60.00,WinterDesignDay
10,72270.88791923438
46,0.0
70,0.0
345,0.0
992,0.0
1016,0.0
1496,1116174340.170014
1532,0.0
1556,0.0
2227,72000.0
2365,833321.0217421366
4121,270.8879192343005
4133,40.335516396173989
4170,146.493945049916
4230,1115341019.1482719
4243,0.0
4354,0.0
4480,0.0
2,1, 1,21, 0,16, 0.00,60.00,WinterDesignDay
10,72269.93718046647
46,0.0
70,0.0
345,0.0
992,0.0
1016,0.0
1496,1107563854.6699653
1532,0.0
1556,0.0
2227,72000.0
2365,833348.6877945478
4121,269.93718046640449
4133,40.32684088845089
4170,146.493945049916
4230,1106730505.9821707
4243,0.0
4354,0.0
4480,0.0
2,1, 1,21, 0,17, 0.00,60.00,WinterDesignDay
10,72269.24629787088
46,0.0
70,0.0
345,0.0
992,0.0
1016,0.0
1496,1101300838.0559154
1532,0.0
1556,0.0
2227,72000.0
2365,833388.8519713967
4121,269.2462978708188
4133,40.323243328000518
4170,146.493945049916
4230,1100467449.2039438
4243,0.0
4354,0.0
4480,0.0
2,1, 1,21, 0,18, 0.00,60.00,WinterDesignDay
10,72268.74506643808
46,0.0
70,0.0
345,0.0
992,0.0
1016,0.0
1496,1096503216.392324
1532,0.0
1556,0.0
2227,72000.0
2365,579580.6931458252
4121,268.7450664379887
4133,40.323243328000518
4170,146.493945049916
4230,1095923635.699178
4243,0.0
4354,0.0
4480,0.0
2,1, 1,21, 0,19, 0.00,60.00,WinterDesignDay
10,72268.39066751441
46,0.0
70,0.0
345,0.0
992,0.0
1016,0.0
1496,1093524201.5925296
1532,0.0
1556,0.0
2227,72000.0
2365,833354.044978367
4121,268.3906675143377
4133,40.323243328000518
4170,146.493945049916
4230,1092690847.5475512
4243,0.0
4354,0.0
4480,0.0
2,1, 1,21, 0,20, 0.00,60.00,WinterDesignDay
10,72268.12884134733
46,0.0
70,0.0
345,0.0
992,0.0
1016,0.0
1496,1091218609.4532748
1532,0.0
1556,0.0
2227,72000.0
2365,833392.9917664847
4121,268.12884134723927
4133,40.323243328000518
4170,146.493945049916
4230,1090385216.4615083
4243,0.0
4354,0.0
4480,0.0
2,1, 1,21, 0,21, 0.00,60.00,WinterDesignDay
10,72267.9318735569
46,0.0
70,0.0
345,0.0
992,0.0
1016,0.0
1496,1089374949.3002525
1532,0.0
1556,0.0
2227,72000.0
2365,833433.6208991384
4121,267.9318735568192
4133,40.323243328000518
4170,146.493945049916
4230,1088541515.6793535
4243,0.0
4354,0.0
4480,0.0
2,1, 1,21, 0,22, 0.00,60.00,WinterDesignDay
10,846512.4678066777
46,0.0
70,0.0
345,0.0
992,0.0
1016,0.0
1496,888220815.3209097
1532,0.0
1556,0.0
2227,846244.6878870867
2365,833468.9664471804
4121,267.7799195909889
4133,40.32324332800051
4170,146.493945049916
4230,887387346.3544625
4243,0.0
4354,0.0
4480,0.0
2,1, 1,21, 0,23, 0.00,60.00,WinterDesignDay
10,72186.81789470442
46,0.0
70,0.0
345,0.0
992,0.0
1016,0.0
1496,375107184.1992238
1532,0.0
1556,0.0
2227,72000.0
2365,773815.3044443551
4121,186.81789470435295
4133,40.323949654436948
4170,146.493945049916
4230,374333368.89477947
4243,0.0
4354,0.0
4480,0.0
2,1, 1,21, 0,24, 0.00,60.00,WinterDesignDay
10,72194.86118383738
46,0.0
70,0.0
345,0.0
992,0.0
1016,0.0
1496,456464692.3947116
1532,0.0
1556,0.0
2227,72000.0
2365,639200.0922826747
4121,194.86118383729744
4133,40.42272015817388
4170,146.493945049916
4230,455825492.3024289
4243,0.0
4354,0.0
4480,0.0
1,SAN-JOSE-INTL-AP AUG CLG 0.4% CONDNS DB=>MCWB,  37.37,-121.93,  -8.00,  16.00
2,1, 8,21, 0, 1, 0.00,60.00,SummerDesignDay
10,674337560.0113279
46,249737579.99999974
70,96701579.99999997
345,153035999.9999997
992,231449399.99999977
1016,231449399.99999977
1496,64209222.077440138
1532,57764642.17263899
1556,57764642.17263899
2227,18205069.005501488
2365,6444579.904801143
4121,237.26128492387597
4133,40.41623135794944
4170,146.493945049916
4230,0.0
4243,0.0
4354,174945273.74454148
4480,0.0
2,1, 8,21, 0, 2, 0.00,60.00,SummerDesignDay
10,666843978.4731495
46,249737579.99999974
70,96701579.99999997
345,153035999.9999997
992,231449399.99999977
1016,231449399.99999977
1496,64209038.355073008
1532,57764642.17263899
1556,57764642.17263899
2227,18877944.467855883
2365,6444396.182434021
4121,235.55119910333279
4133,40.42691021371776
4170,146.493945049916
4230,0.0
4243,0.0
4354,166778818.45409445
4480,0.0
2,1, 8,21, 0, 3, 0.00,60.00,SummerDesignDay
10,661527996.2197389
46,249737579.99999974
70,96701579.99999997
345,153035999.9999997
992,231449399.99999977