Program Version,EnergyPlus, Version 9.0.1-bb7ca4f0da, YMD=2019.12.17 18:30
1,5,Environment Title[],Latitude[deg],Longitude[deg],Time Zone[],Elevation[m]
2,8,Day of Simulation[],Month[],Day of Month[],DST Indicator[1=yes 0=no],Hour[],StartMinute[],EndMinute[],DayType
3,5,Cumulative Day of Simulation[],Month[],Day of Month[],DST Indicator[1=yes 0=no],DayType  ! When Daily Meters Requested
4,2,Cumulative Days of Simulation[],Month[]  ! When Monthly Meters Requested
5,1,Cumulative Days of Simulation[] ! When Run Period Meters Requested
6,1,Calendar Year of Simulation[] ! When Annual Meters Requested
2228,1,WaterSystems:Electricity [J] !Hourly
71,1,ComplianceLtg:InteriorLights:Electricity [J] !Hourly
1533,1,InteriorEquipment:Gas [J] !Hourly
4244,1,Heating:Electricity [J] !Hourly
4231,1,Heating:Gas [J] !Hourly
346,1,NonComplianceLtg:InteriorLights:Electricity [J] !Hourly
1497,1,Gas:Facility [J] !Hourly
11,1,Electricity:Facility [J] !Hourly
47,1,InteriorLights:Electricity [J] !Hourly
4122,1,Fans:Electricity [J] !Hourly
993,1,InteriorEquipment:Electricity [J] !Hourly
4480,1,Pumps:Electricity [J] !Hourly
4355,1,Cooling:Electricity [J] !Hourly
2366,1,WaterSystems:Gas [J] !Hourly
1017,1,Receptacle:InteriorEquipment:Electricity [J] !Hourly
1557,1,Receptacle:InteriorEquipment:Gas [J] !Hourly
4134,1,General:Fans:Electricity [J] !Hourly
4171,1,ProcessMotors:Fans:Electricity [J] !Hourly
End of Data Dictionary
1,BLUE-CANYON_725845_CZ2010,  39.30,-120.72,  -8.00,1609.00
2,1, 1, 1, 0, 1, 0.00,60.00,Holiday
11,64650114.21558425
47,24156278.99999996
71,4835078.999999999
346,19321199.999999968
993,18722069.99999997
1017,18722069.99999997
1497,85907264.57147926
1533,0.0
1557,0.0
2228,1610271.6325297096
2366,1048491.8741008424
4122,20132738.634755829
4134,13757665.122959767
4171,3545058.6301972989
4231,84858772.69737843
4244,4683.322749471488
4355,0.0
4480,24071.62554925493
2,1, 1, 1, 0, 2, 0.00,60.00,Holiday
11,66974542.65814243
47,24156278.99999996
71,4835078.999999999
346,19321199.999999968
993,18722069.99999997
1017,18722069.99999997
1497,141391836.372912
1533,0.0
1557,0.0
2228,1610268.0817752113
2366,1310481.8785507458
4122,22456013.74204634
4134,13757665.122959767
4171,3545058.6301972989
4231,140081354.49436123
4244,6385.841321815377
4355,0.0
4480,23525.992999107493
2,1, 1, 1, 0, 3, 0.00,60.00,Holiday
11,69365156.08098263
47,24156278.99999996
71,4835078.999999999
346,19321199.999999968
993,18722069.99999997
1017,18722069.99999997
1497,199818336.5804491
1533,0.0
1557,0.0
2228,1610056.521201308
2366,1048395.6303203038
4122,24845445.210957838
4134,13757665.122959767
4171,3545058.6301972989
4231,198769940.9501288
4244,8319.716550394402
4355,0.0
4480,22985.632273125986
2,1, 1, 1, 0, 4, 0.00,60.00,Holiday
11,71106441.47442258
47,24156278.99999996
71,4835078.999999999
346,19321199.999999968
993,18722069.99999997
1017,18722069.99999997
1497,253836775.1729019
1533,0.0
1557,0.0
2228,1139858.6545552
2366,1303238.8476557045
4122,27055084.36301399
4134,13991434.237934174
4171,3545058.6301972989
4231,252533536.32524617
4244,10414.644535918658
4355,0.0
4480,22734.8123174855
2,1, 1, 1, 0, 5, 0.00,60.00,Holiday
11,73863209.73824045
47,24156278.99999996
71,4835078.999999999
346,19321199.999999968
993,18722069.99999997
1017,18722069.99999997
1497,292810106.19944259
1533,0.0
1557,0.0
2228,1252864.954076084
2366,1042602.7309095744
4122,29694117.196488024
4134,14875410.857650575
4171,3545058.6301972989
4231,291767503.468533
4244,11090.911933755619
4355,0.0
4480,26787.675742599447
2,1, 1, 1, 0, 6, 0.00,60.00,Holiday
11,131519291.6819315
47,52754678.99999992
71,4835078.999999999
346,47919599.99999992
993,47320469.999999929
1017,47320469.999999929
1497,349007871.83266296
1533,0.0
1557,0.0
2228,1595255.7081222865
2366,1240437.1232161693
4122,29770487.430478448
4134,16569143.726637867
4171,3545058.6301972989
4231,347767434.7094468
4244,27665.323846826377
4355,0.0
4480,50734.21948395716
2,1, 1, 1, 0, 7, 0.00,60.00,Holiday
11,207345320.70473568
47,74203478.99999988
71,4835078.999999999
346,69368399.9999999
993,68769269.9999999
1017,68769269.9999999
1497,1056287549.1664411
1533,28597212.921243654
1557,28597212.921243654
2228,1610207.9813323986
2366,1120723.614447313
4122,62679471.46363789
4134,16792801.064502535
4171,3545058.6301972989
4231,1026569612.6307502
4244,26754.71108891391
4355,0.0
4480,56137.548676607475
2,1, 1, 1, 0, 8, 0.00,60.00,Holiday
11,197158215.18101914
47,74198174.23240194
71,4829774.232402056
346,69368399.9999999
993,68769269.9999999
1017,68769269.9999999
1497,830102757.2421981
1533,28597212.921243654
1557,28597212.921243654
2228,2485323.5958798627
2366,1332980.006171792
4122,51612923.55459746
4134,16636483.881362599
4171,3545058.6301972989
4231,800172564.3147826
4244,27378.1889406429
4355,0.0
4480,65145.609199234874
2,1, 1, 1, 0, 9, 0.00,60.00,Holiday
11,218038893.42690248
47,77829441.4142638
71,8461041.414263918
346,69368399.9999999
993,72641339.99999988
1017,72641339.99999988
1497,1144773073.981889
1533,0.0
1557,0.0
2228,2534728.97552778
2366,1348378.2387559317
4122,62523108.94165053
4134,32007576.146126614
4171,3545058.6301972989
4231,1143424695.743133
4244,135475.95359311393
4355,0.0
4480,2374798.1418672765
2,1, 1, 1, 0,10, 0.00,60.00,Holiday
11,200744340.17359577
47,77747322.80483625
71,8378922.804836366
346,69368399.9999999
993,72641339.99999988
1017,72641339.99999988
1497,972515446.7803683
1533,0.0
1557,0.0
2228,3447204.2734091167
2366,1636714.344490551
4122,45399915.5473731
4134,17214753.875586105
4171,3545058.6301972989
4231,970878732.4358777
4244,107444.99143722834
4355,0.0
4480,1401112.5565401233
2,1, 1, 1, 0,11, 0.00,60.00,Holiday
11,204664559.3809788
47,77679631.14638195
71,29760031.14638199
346,47919599.99999992
993,74424959.99999996
1017,74424959.99999996
1497,912371052.0553994
1533,0.0
1557,0.0
2228,6276109.395852838
2366,2129751.1023110256
4122,45422303.55873994
4134,16970517.27206744
4171,3545058.6301972989
4231,910241300.9530884
4244,89361.30266539115
4355,0.0
4480,772193.9773387145
2,1, 1, 1, 0,12, 0.00,60.00,Holiday
11,203134328.33007346
47,77133216.18001823
71,29213616.180018277
346,47919599.99999992
993,74424959.99999996
1017,74424959.99999996
1497,874824891.8201475
1533,11438885.168497468
1557,11438885.168497468
2228,7093685.97525983
2366,2399131.8005890219
4122,43743570.56982744
4134,16893294.62192706
4171,3545058.6301972989
4231,860986874.8510611
4244,84940.79197085732
4355,0.0
4480,653954.8129971315
2,1, 1, 1, 0,13, 0.00,60.00,Holiday
11,225631710.84589605
47,86121450.02630119
71,38201850.02630122
346,47919599.99999992
993,89913239.99999997
1017,89913239.99999997
1497,776563508.2366952
1533,11438885.168497468
1557,11438885.168497468
2228,8184029.721140578
2366,2641423.374449866
4122,40850153.66974899
4134,16888954.88147571
4171,3545058.6301972989
4231,762483199.6937478
4244,74132.14058183975
4355,0.0
4480,488705.28812348577
2,1, 1, 1, 0,14, 0.00,60.00,Holiday
11,223619332.7875962
47,86051225.6596558
71,38131625.65965582
346,47919599.99999992
993,89913239.99999997
1017,89913239.99999997
1497,710845638.3761746
1533,0.0
1557,0.0
2228,8432483.144117509
2366,2735113.331779533
4122,38692968.827627908
4134,16888954.88147571
4171,3545058.6301972989
4231,708110525.044395
4244,71096.36873870096
4355,0.0
4480,458318.787456331
2,1, 1, 1, 0,15, 0.00,60.00,Holiday
11,222509406.0821578
47,86732463.34613681
71,38812863.34613683
346,47919599.99999992
993,89913239.99999997
1017,89913239.99999997
1497,687641527.9394739
1533,0.0
1557,0.0
2228,7558087.595850964
2366,2484902.6526226315
4122,37783198.863091398
4134,16888954.88147571
4171,3545058.6301972989
4231,685156625.2868514
4244,69524.59963850872
4355,0.0
4480,452891.6774401668
2,1, 1, 1, 0,16, 0.00,60.00,Holiday
11,224002971.02858848
47,87425018.23004455
71,39505418.23004456
346,47919599.99999992
993,89913239.99999997
1017,89913239.99999997
1497,700356906.9696177
1533,0.0
1557,0.0
2228,7653812.750528301
2366,2487270.473025596
4122,38481269.19083851
4134,16888954.88147571
4171,3545058.6301972989
4231,697869636.4965922
4244,69197.15184247872
4355,0.0
4480,460433.7053346781
2,1, 1, 1, 0,17, 0.00,60.00,Holiday
11,228136193.1663967
47,89547543.9609335
71,41627943.960933517
346,47919599.99999992
993,89913239.99999997
1017,89913239.99999997
1497,749591171.641462
1533,28597212.921243654
1557,28597212.921243654
2228,8559994.662378787
2366,2531256.426925174
4122,39583939.4105714
4134,16888954.88147571
4171,3545058.6301972989
4231,718462702.2932931
4244,69005.05570775348
4355,0.0
4480,462470.07680533939
2,1, 1, 1, 0,18, 0.00,60.00,Holiday
11,202323279.69192518
47,78647111.99999994
71,30727511.99999999
346,47919599.99999992
993,74424959.99999996
1017,74424959.99999996
1497,795649949.9385891
1533,28597212.921243654
1557,28597212.921243654
2228,7929479.129760376
2366,2474360.385047464
4122,40742810.781115058
4134,16888954.88147571
4171,3545058.6301972989
4231,764578376.632298
4244,75363.37989008977
4355,0.0
4480,503554.40115971289
2,1, 1, 1, 0,19, 0.00,60.00,Holiday
11,248776247.36336718
47,106749035.99999982
71,15931835.999999995
346,90817199.99999984
993,101834279.99999984
1017,101834279.99999984
1497,689196096.381135
1533,28597212.921243654
1557,28597212.921243654
2228,5146763.264213951
2366,2060666.9302275687
4122,34626020.75481842
4134,14855194.208889278
4171,3545058.6301972989
4231,658538216.5296637
4244,69895.27059840958
4355,0.0
4480,350252.0737366148
2,1, 1, 1, 0,20, 0.00,60.00,Holiday
11,274195552.1335054
47,124250678.9999998
71,4835078.999999999
346,119415599.9999998
993,118816469.99999982
1017,118816469.99999982
1497,259728690.37001924
1533,0.0
1557,0.0
2228,6615244.626335325
2366,2329688.228268951
4122,24513158.507170369
4134,8488078.333418433
4171,3545058.6301972989
4231,257399002.14175029
4244,0.0
4355,0.0
4480,0.0
2,1, 1, 1, 0,21, 0.00,60.00,Holiday
11,299067895.815722
47,138549878.9999998
71,4835078.999999999
346,133714799.99999979
993,133115669.99999979
1017,133115669.99999979
1497,221439736.90199847
1533,0.0
1557,0.0
2228,4680034.4278841209
2366,1706535.777621729
4122,22722312.387838134
4134,8488078.333418435
4171,3545058.6301972989
4231,219733201.12437675
4244,0.0
4355,0.0
4480,0.0
2,1, 1, 1, 0,22, 0.00,60.00,Holiday
11,272200932.8663367
47,124250678.9999998
71,4835078.999999999
346,119415599.9999998
993,118816469.99999982
1017,118816469.99999982
1497,240975267.27607323
1533,0.0
1557,0.0
2228,3518069.7154806877
2366,1668821.9306913373
4122,25606504.36241003
4134,10450544.714489796
4171,3545058.6301972989
4231,239306445.3453819
4244,78.98940099399414
4355,0.0
4480,9130.799045225156
2,1, 1, 1, 0,23, 0.00,60.00,Holiday
11,207223980.1972443
47,95652278.99999984
71,4835078.999999999
346,90817199.99999984
993,90218069.99999985
1017,90218069.99999985
1497,7421164.229066983
1533,0.0
1557,0.0
2228,2485481.842940172
2366,1332850.4076347587
4122,18836353.751329785
4134,15291295.121132484
4171,3545058.6301972989
4231,6088313.821432224
4244,1090.0546864979975
4355,0.0
4480,30705.54828803089
2,1, 1, 1, 0,24, 0.00,60.00,Holiday
11,119502341.20705703
47,52754678.99999992
71,4835078.999999999
346,47919599.99999992
993,47320469.999999929
1017,47320469.999999929
1497,19827544.105925755
1533,0.0
1557,0.0
2228,797626.4663946261
2366,1303178.9019136197
4122,18600298.589268745
4134,14702555.206811076
4171,3545058.6301972989
4231,18524365.204012138
4244,1982.4862893419355
4355,0.0
4480,27284.66510436107
2,2, 1, 2, 0, 1, 0.00,60.00,Friday
11,65275075.06584318
47,24156278.99999996
71,4835078.999999999
346,19321199.999999968
993,18722069.99999997
1017,18722069.99999997
1497,101828602.10057649
1533,0.0
1557,0.0
2228,1566083.0095176516
2366,1033582.2453018802
4122,20801680.727307567
4134,13757665.122959767
4171,3545058.6301972989
4231,100795019.8552746
4244,5114.305395561517
4355,0.0
4480,23848.023622431167
2,2, 1, 2, 0, 2, 0.00,60.00,Friday
11,68293382.6056616
47,24156278.99999996
71,4835078.999999999
346,19321199.999999968
993,18722069.99999997
1017,18722069.99999997
1497,191762273.233374
1533,0.0
1557,0.0
2228,790112.1927562831
2366,1039344.1489465404
4122,24594018.10078205
4134,13757665.122959767
4171,3545058.6301972989
4231,190722929.08442746
4244,7882.923849386911
4355,0.0
4480,23020.388273908888
2,2, 1, 2, 0, 3, 0.00,60.00,Friday
11,72373177.77031674
47,24156278.99999996
71,4835078.999999999
346,19321199.999999968
993,18722069.99999997
1017,18722069.99999997
1497,258641678.27068389
1533,0.0
1557,0.0
2228,1580565.0848637282
2366,1039241.2587212778
4122,27880270.383209487
4134,14274034.514855279
4171,3545058.6301972989
4231,257602437.0119626
4244,9450.166383269061
4355,0.0
4480,24543.13586027582
2,2, 1, 2, 0, 4, 0.00,60.00,Friday
11,74031303.81796408
47,24156278.99999996
71,4835078.999999999
346,19321199.999999968
993,18722069.99999997
1017,18722069.99999997
1497,303507984.02870216
1533,0.0
1557,0.0
2228,783030.8986442172
2366,1056905.5044377708
4122,30332569.431070106
4134,14875410.857650575
4171,3545058.6301972989
4231,302451078.5242644
4244,10661.418561389044
4355,0.0
4480,26693.069688374882
2,2, 1, 2, 0, 5, 0.00,60.00,Friday
11,75410109.52923978
47,24156278.99999996
71,4835078.999999999
346,19321199.999999968
993,18722069.99999997
1017,18722069.99999997
1497,337365037.5270406
1533,0.0
1557,0.0
2228,783016.2146723542
2366,1268690.8087621409
4122,31709136.49504311
4134,14960417.808550362
4171,3545058.6301972989
4231,336096346.71827849
4244,12001.838972458212
4355,0.0
4480,27605.98055186279
2,2, 1, 2, 0, 6, 0.00,60.00,Friday
11,147016071.5165148
47,53890838.99999992
71,5971238.999999999
346,47919599.99999992
993,47871269.999999929
1017,47871269.999999929
1497,556949719.3677254
1533,0.0
1557,0.0
2228,1566019.1540054884
2366,1041032.8723205463
4122,42359148.520021099
4134,27758640.175752306
4171,3545058.6301972989
4231,555908686.4954047
4244,71283.05099893415
4355,0.0
4480,1257511.7914893446
2,2, 1, 2, 0, 7, 0.00,60.00,Friday
11,244233851.90734519
47,80361638.99999988
71,5971238.999999999
346,74390399.99999988
993,69320069.9999999
1017,69320069.9999999
1497,1625180380.0882173
1533,28597212.921243654
1557,28597212.921243654
2228,783036.9612122759
2366,1038505.2869902821
4122,90890696.13579816
4134,44377550.016455318
4171,3545058.6301972989
4231,1595544661.8799833
4244,157768.3412948905
4355,0.0
4480,2720641.46904
2,2, 1, 2, 0, 8, 0.00,60.00,Friday
11,235445001.75083263
47,95789692.40281274
71,21399292.40281287
346,74390399.99999988
993,83139479.99999988
1017,83139479.99999988
1497,1217238239.8115092
1533,28882321.086319496
1557,28882321.086319496
2228,3483417.795047968
2366,1997469.9043762212
4122,51242472.27817336
4134,18131119.164922909
4171,3545058.6301972989
4231,1186358448.8208132
4244,133162.26301398257
4355,0.0
4480,1656777.0117846078
2,2, 1, 2, 0, 9, 0.00,60.00,Friday
11,285749915.3934733
47,122723662.68950267
71,48333262.689502809
346,74390399.99999988
993,112981499.99999987
1017,112981499.99999987
1497,932851565.3184199
1533,285108.16507584266
1557,285108.16507584266
2228,4743506.546233377
2366,2512425.2179743398
4122,43921916.95581872
4134,16987567.51311974
4171,3545058.6301972989
4231,930054031.9353699
4244,103376.67058134693
4355,0.0
4480,1275952.5313371858
2,2, 1, 2, 0,10, 0.00,60.00,Friday
11,343704169.03032949
47,149390811.4394415
71,75000411.43944158
346,74390399.99999988
993,143958059.99999995
1017,143958059.99999995
1497,817181470.2732473
1533,285108.16507584266
1557,285108.16507584266
2228,7379668.049317945
2366,3037304.4722572325
4122,42040312.356416899
4134,16888954.88147571
4171,3545058.6301972989
4231,813859057.635914
4244,81924.88467583159
4355,0.0
4480,853392.300477327
2,2, 1, 2, 0,11, 0.00,60.00,Friday
11,304351789.7444478
47,128572564.46595635
71,75630964.46595636
346,52941599.9999999
993,122509259.99999996
1017,122509259.99999996
1497,820443647.9147084
1533,513194.69713651677
1557,513194.69713651677
2228,9489802.975050237
2366,3622059.0645614529
4122,42928103.695030558
4134,16888954.88147571
4171,3545058.6301972989
4231,816308394.1530104
4244,77620.35073961242
4355,0.0
4480,774438.2576710833
2,2, 1, 2, 0,12, 0.00,60.00,Friday
11,307108129.05276706
47,128214325.5966522
71,75272725.59665223
346,52941599.9999999
993,122509259.99999996
1017,122509259.99999996
1497,828778265.4136701
1533,11952079.865633984
1557,11952079.865633984
2228,12629089.705698312
2366,4365980.846803932
4122,42856572.44295271
4134,16988700.898558078
4171,3545058.6301972989
4231,812460204.7012322
4244,77673.39165180866
4355,0.0
4480,821207.9158120393
2,2, 1, 2, 0,13, 0.00,60.00,Friday
11,308885465.7833023
47,128542816.04388187
71,75601216.0438819
346,52941599.9999999
993,122509259.99999996
1017,122509259.99999996
1497,823251995.5505129
1533,11952079.865633984
1557,11952079.865633984
2228,14378140.168423059
2366,5025633.847401999
4122,42562126.87742498
4134,17008324.765186915
4171,3545058.6301972989
4231,806274281.8374769
4244,77792.76946288711
4355,0.0
4480,815329.9241095233
2,2, 1, 2, 0,14, 0.00,60.00,Friday
11,308407328.5784559
47,129257201.77823593
71,76315601.77823594
346,52941599.9999999
993,122509259.99999996
1017,122509259.99999996
1497,798457300.1515198
1533,513194.69713651677
1557,513194.69713651677
2228,13390988.593643155
2366,4672851.018380456
4122,42427481.35378664
4134,17051783.2598654
4171,3545058.6301972989
4231,793271254.436003
4244,75270.094293656
4355,0.0
4480,747126.7584964843
2,2, 1, 2, 0,15, 0.00,60.00,Friday
11,305473617.5312834
47,129201099.77774145
71,76259499.77774146
346,52941599.9999999
993,122509259.99999996
1017,122509259.99999996
1497,778966227.9061036
1533,427662.2476137639
1557,427662.2476137639
2228,11065082.08691202
2366,3901060.799388607
4122,41990618.23238062
4134,17085533.63586508
4171,3545058.6301972989
4231,774637504.8591013
4244,72836.60719618034
4355,0.0
4480,634720.8270531079
2,2, 1, 2, 0,16, 0.00,60.00,Friday
11,300728225.71716079
47,126952418.72062803
71,74010818.72062806
346,52941599.9999999
993,122509259.99999996
1017,122509259.99999996
1497,740276720.0646217
1533,427662.2476137639
1557,427662.2476137639
2228,10279415.489437193
2366,3497478.4265630457
4122,40330980.85561015
4134,17178983.4924924
4171,3545058.6301972989
4231,736351579.3904448
4244,71940.09797280767
4355,0.0
4480,584210.5535126643
2,2, 1, 2, 0,17, 0.00,60.00,Friday
11,304666827.75459977
47,130213027.86901878
71,77271427.86901881
346,52941599.9999999
993,122509259.99999996
1017,122509259.99999996
1497,777791398.2322105
1533,29024875.168857416
1557,29024875.168857416
2228,10615885.129663609
2366,3917600.7264953635
4122,40633886.38433024
4134,17134809.051260789
4171,3545058.6301972989
4231,744848922.3368578
4244,72496.35103443008
4355,0.0
4480,622272.0205527098
2,2, 1, 2, 0,18, 0.00,60.00,Friday
11,294594305.93327578
47,123776342.99999996
71,70834742.99999997
346,52941599.9999999
993,118102859.99999997
1017,118102859.99999997
1497,802941303.6271136
1533,29024875.168857416
1557,29024875.168857416
2228,10762692.810045654
2366,3554078.193131673
4122,41181354.767837259
4134,17036530.6506655
4171,3545058.6301972989
4231,770362350.2651243
4244,76048.87092312661
4355,0.0
4480,695006.484469795
2,2, 1, 2, 0,19, 0.00,60.00,Friday
11,325743827.6661403
47,143344268.99999986
71,47505068.99999999
346,95839199.99999984
993,135564839.99999989
1017,135564839.99999989
1497,718378642.9432764
1533,28597212.921243654
1557,28597212.921243654
2228,9387451.98394832
2366,3256651.844728223
4122,36549597.7685486
4134,16897236.508616158
4171,3545058.6301972989
4231,686524778.1773045
4244,78888.34845491301
4355,0.0
4480,818780.5651887282
2,2, 1, 2, 0,20, 0.00,60.00,Friday
11,377371300.37544086
47,171942668.99999974
71,47505068.99999999
346,124437599.9999998
993,164163239.99999974
1017,164163239.99999974
1497,606997709.7208227
1533,0.0
1557,0.0
2228,7762369.803490173
2366,2720500.126411088
4122,32669335.032818535
4134,16888954.88147571
4171,3545058.6301972989
4231,604277209.5944116
4244,78560.06044330997
4355,0.0
4480,755126.4786891585
2,2, 1, 2, 0,21, 0.00,60.00,Friday
11,388996221.7524403
47,180270629.9999997
71,41533829.999999988
346,138736799.9999998
993,169616699.99999974
1017,169616699.99999974
1497,577380891.3769708
1533,0.0
1557,0.0
2228,7466376.987597698
2366,2610349.9475270316
4122,30751870.692865544
4134,16888954.88147571
4171,3545058.6301972989
4231,574770541.4294436
4244,81355.4082276244
4355,0.0
4480,809288.6637495969
2,2, 1, 2, 0,22, 0.00,60.00,Friday
11,305621066.9764424
47,143777915.9999998
71,19340315.999999998
346,124437599.9999998
993,132085079.9999998
1017,132085079.9999998
1497,366608411.1436045
1533,0.0
1557,0.0
2228,4740042.446162433
2366,2015673.845073412
4122,24927378.78914457
4134,10521839.006004857
4171,3545058.6301972989
4231,364592737.29853108
4244,25658.23172571336
4355,0.0
4480,64991.50940990171
2,2, 1, 2, 0,23, 0.00,60.00,Friday
11,205142206.82794634
47,96788438.99999984
71,5971238.999999999
346,90817199.99999984
993,90768869.99999985
1017,90768869.99999985
1497,150177785.87476049
1533,0.0
1557,0.0
2228,3413226.7004889284
2366,1600034.6981254463
4122,14067880.655083802
4134,10522822.024886504
4171,3545058.6301972989
4231,148577751.17663504
4244,26873.082319804693
4355,0.0
4480,76917.39005401783
2,2, 1, 2, 0,24, 0.00,60.00,Friday
11,116274902.10762748
47,52754678.99999992
71,4835078.999999999
346,47919599.99999992
993,47320469.999999929
1017,47320469.999999929
1497,166145314.98676829
1533,0.0
1557,0.0
2228,1625667.9908900443
2366,1321041.0195013965
4122,14451009.331727088
4134,10577822.756335143
4171,3545058.6301972989
4231,164824273.9672669
4244,28892.860961474642
4355,0.0
4480,94182.92404892156
2,3, 1, 3, 0, 1, 0.00,60.00,Saturday
11,60946885.99360016
47,24156278.99999996
71,4835078.999999999
346,19321199.999999968
993,18722069.99999997
1017,18722069.99999997
1497,73495010.07421166
1533,0.0
1557,0.0
2228,2509812.056484502
2366,1344019.2375088274
4122,15558724.937115692
4134,8488078.333418435
4171,3545058.6301972989
4231,72150990.83670283
4244,0.0
4355,0.0
4480,0.0
2,3, 1, 3, 0, 2, 0.00,60.00,Saturday
11,66944667.72152797
47,24156278.99999996
71,4835078.999999999
346,19321199.999999968
993,18722069.99999997
1017,18722069.99999997
1497,154398111.7414082
1533,0.0
1557,0.0
2228,2485582.2665652299
2366,1336116.4054696554
4122,21574627.76679655
4134,10450544.714489796
4171,3545058.6301972989
4231,153061995.33593858
4244,58.40402348250463
4355,0.0
4480,6050.2841427467869
2,3, 1, 3, 0, 3, 0.00,60.00,Saturday
11,71254791.73689793
47,24156278.99999996
71,4835078.999999999
346,19321199.999999968
993,18722069.99999997
1017,18722069.99999997
1497,222690490.95959974
1533,0.0
1557,0.0
2228,1625351.2198444224
2366,1321014.4057238326
4122,26732860.107562264
4134,12413011.095561156
4171,3545058.6301972989
4231,221369476.55387593
4244,355.21936385417748
4355,0.0
4480,17876.190127419904
2,3, 1, 3, 0, 4, 0.00,60.00,Saturday
11,73354574.15633519
47,24156278.99999996
71,4835078.999999999
346,19321199.999999968
993,18722069.99999997
1017,18722069.99999997
1497,270291219.72089859
1533,0.0
1557,0.0
2228,1594878.7921579078
2366,1044807.07140726
4122,28863188.926717648
4134,12413011.095561156
4171,3545058.6301972989
4231,269246412.6494913
4244,815.5473759460208
4355,0.0
4480,17341.890083726095
2,3, 1, 3, 0, 5, 0.00,60.00,Saturday
11,76986913.1224654
47,24156278.99999996
71,4835078.999999999
346,19321199.999999968
993,18722069.99999997
1017,18722069.99999997
1497,315577121.54773917
1533,0.0
1557,0.0
2228,1595106.840341963
2366,1306341.6954137139
4122,32481171.908910276
4134,14381399.410055206
4171,3545058.6301972989
4231,314270779.8523254
4244,2641.5892618116065
4355,0.0
4480,29643.783951384772
2,3, 1, 3, 0, 6, 0.00,60.00,Saturday
11,145518840.08167807
47,52754678.99999992
71,4835078.999999999
346,47919599.99999992
993,47320469.999999929
1017,47320469.999999929
1497,579640161.0155186
1533,0.0
1557,0.0
2228,1595395.462507667
2366,1052846.332465996
4122,42620428.893559608
4134,25570246.95863667
4171,3545058.6301972989
4231,578587314.6830525
4244,63880.32082293257
4355,0.0
4480,1163986.4047879249
2,3, 1, 3, 0, 7, 0.00,60.00,Saturday
11,246229569.46412636
47,80361638.99999988
71,5971238.999999999
346,74390399.99999988
993,69320069.9999999
1017,69320069.9999999
1497,1741905955.6243315
1533,28597212.921243654
1557,28597212.921243654
2228,1610252.8202191524
2366,1320283.0988266653
4122,92048558.99460423
4134,42128748.22577345
4171,3545058.6301972989
4231,1711988459.6042615
4244,168407.1802631564
4355,0.0
4480,2720641.46904
2,3, 1, 3, 0, 8, 0.00,60.00,Saturday
11,219808291.1784386
47,83903483.77422756
71,9513083.774227683
346,74390399.99999988
993,73192139.99999988
1017,73192139.99999988
1497,1403572107.2864328
1533,28597212.921243654
1557,28597212.921243654
2228,4588112.786764284
2366,2016105.0252214419
4122,55490424.58014499
4134,18522875.553115377
4171,3545058.6301972989
4231,1372958789.3399678
4244,152611.84962149064
4355,0.0
4480,2481518.187680352
2,3, 1, 3, 0, 9, 0.00,60.00,Saturday
11,245116717.98371215
47,100941733.84870443
71,26551333.848704578
346,74390399.99999988
993,90883619.99999987
1017,90883619.99999987
1497,1098635320.0900658
1533,285108.16507584266
1557,285108.16507584266
2228,4793558.930895227
2366,2089877.0143638552
4122,46713480.316833298
4134,17203793.409696077
4171,3545058.6301972989
4231,1096260334.910626
4244,129913.91511294723
4355,0.0
4480,1654410.97216625
2,3, 1, 3, 0,10, 0.00,60.00,Saturday
11,281756112.7101986
47,118284384.39804946
71,43893984.39804958
346,74390399.99999988
993,114116039.99999988
1017,114116039.99999988
1497,896152362.3163873
1533,285108.16507584266
1557,285108.16507584266
2228,6350293.6918273889
2366,2478305.980578078
4122,41472609.269128169
4134,16944775.870970418
4171,3545058.6301972989
4231,893388948.1707333
4244,106332.13142704785
4355,0.0
4480,1426453.219766491
2,3, 1, 3, 0,11, 0.00,60.00,Saturday
11,282319401.251008
47,116935797.04504639
71,63994197.045046407
346,52941599.9999999
993,115899659.99999997
1017,115899659.99999997
1497,778471636.4541947
1533,513194.69713651677
1557,513194.69713651677
2228,9206779.668974128
2366,3278728.80720501
4122,38812802.03624326
4134,16928337.135065587
4171,3545058.6301972989
4231,774679712.9498532
4244,89047.86080764578
4355,0.0
4480,1375314.639936614
2,3, 1, 3, 0,12, 0.00,60.00,Saturday
11,282416966.9750305
47,116759004.40930753
71,63817404.409307528
346,52941599.9999999
993,115899659.99999997
1017,115899659.99999997
1497,705629110.7899673
1533,11952079.865633984
1557,11952079.865633984
2228,12753613.762313642
2366,3844162.850879663
4122,35695605.49987373
4134,17047389.29981716
4171,3545058.6301972989
4231,689832868.0734537
4244,84367.81595584224
4355,0.0
4480,1224715.4875798417
2,3, 1, 3, 0,13, 0.00,60.00,Saturday
11,275586691.70723137
47,113457847.49706328
71,60516247.497063297
346,52941599.9999999
993,114247259.99999997
1017,114247259.99999997
1497,656954265.0590103
1533,11952079.865633984
1557,11952079.865633984
2228,12839168.301829858
2366,4030637.1545262078
4122,33966451.72055963
4134,17103803.3978283
4171,3545058.6301972989
4231,640971548.0388502
4244,81273.23327097119
4355,0.0
4480,994690.9545075947
2,3, 1, 3, 0,14, 0.00,60.00,Saturday
11,273917502.2659084
47,113157726.31747914
71,60216126.31747915
346,52941599.9999999
993,114247259.99999997
1017,114247259.99999997
1497,593452717.3325471
1533,513194.69713651677
1557,513194.69713651677
2228,13537025.305414545
2366,3935764.9941350559
4122,32113183.478607086
4134,17170526.310878617
4171,3545058.6301972989
4231,589003757.6412755
4244,77596.7315231798
4355,0.0
4480,784710.4328845643
2,3, 1, 3, 0,15, 0.00,60.00,Saturday
11,269285788.2276712
47,113103084.31321194
71,60161484.313211958
346,52941599.9999999
993,114247259.99999997
1017,114247259.99999997
1497,531871297.9248275
1533,427662.2476137639
1557,427662.2476137639
2228,11448749.060449934
2366,3474007.888163224
4122,29814906.213098766
4134,17353866.638267124
4171,3545058.6301972989
4231,527969627.7890506
4244,73758.56692334617
4355,0.0
4480,598030.0739872588
2,3, 1, 3, 0,16, 0.00,60.00,Saturday
11,267096348.198966
47,112875495.06147301
71,59933895.06147303
346,52941599.9999999
993,114247259.99999997
1017,114247259.99999997
1497,496334281.56183746
1533,427662.2476137639
1557,427662.2476137639
2228,10495781.848084279
2366,3221927.9790123228
4122,28952923.02551646
4134,17934583.44986947
4171,3545058.6301972989
4231,492684691.33521136
4244,71403.85838132743
4355,0.0
4480,453484.40551102018
2,3, 1, 3, 0,17, 0.00,60.00,Saturday
11,274299836.47394397
47,117884942.91447208
71,64943342.91447209
346,52941599.9999999
993,114247259.99999997
1017,114247259.99999997
1497,569067321.5157448
1533,29024875.168857416
1557,29024875.168857416
2228,10340260.73519937
2366,3320888.6976544049
4122,31308401.3784704
4134,18174727.665480734
4171,3545058.6301972989
4231,536721557.64923307
4244,71917.84968713334
4355,0.0
4480,447053.5961149888
2,3, 1, 3, 0,18, 0.00,60.00,Saturday
11,270608586.7686619
47,111937382.99999996
71,64017782.99999998
346,47919599.99999992
993,113145659.99999997
1017,113145659.99999997
1497,661126903.5863046
1533,28597212.921243654
1557,28597212.921243654
2228,10185065.678309229
2366,3211186.8246824347
4122,34659122.261677037
4134,17614656.267048848
4171,3545058.6301972989
4231,629318503.8403785
4244,75921.55950564449
4355,0.0
4480,605434.2691700924
2,3, 1, 3, 0,19, 0.00,60.00,Saturday
11,296771156.69816747
47,128942549.99999987
71,38125349.999999988
346,90817199.99999984
993,125066699.99999988
1017,125066699.99999988
1497,632372617.9851794
1533,28597212.921243654
1557,28597212.921243654
2228,9890123.086906482
2366,3004778.325550968
4122,31837439.304606596
4134,16888954.88147571
4171,3545058.6301972989
4231,600770626.7383847
4244,80581.88512961506
4355,0.0
4480,953762.4215248705
2,3, 1, 3, 0,20, 0.00,60.00,Saturday
11,318050253.3835711
47,142745273.9999998
71,23329673.999999994
346,119415599.9999998
993,138176819.9999998
1017,138176819.9999998
1497,489981831.2063654
1533,0.0
1557,0.0
2228,8789633.01668739
2366,2526108.6575542029
4122,27803673.504211468
4134,14855194.208889278
4171,3545058.6301972989
4231,487455722.5488112
4244,61432.94527342309
4355,0.0
4480,473419.9173990593
2,3, 1, 3, 0,21, 0.00,60.00,Saturday
11,343506954.5404482