Program Version,EnergyPlus, Version 9.0.1-bb7ca4f0da, YMD=2019.11.07 12:07
1,5,Environment Title[],Latitude[deg],Longitude[deg],Time Zone[],Elevation[m]
2,8,Day of Simulation[],Month[],Day of Month[],DST Indicator[1=yes 0=no],Hour[],StartMinute[],EndMinute[],DayType
3,5,Cumulative Day of Simulation[],Month[],Day of Month[],DST Indicator[1=yes 0=no],DayType  ! When Daily Meters Requested
4,2,Cumulative Days of Simulation[],Month[]  ! When Monthly Meters Requested
5,1,Cumulative Days of Simulation[] ! When Run Period Meters Requested
6,1,Calendar Year of Simulation[] ! When Annual Meters Requested
1039,1,Heating:Electricity [J] !Hourly
914,1,Fans:Electricity [J] !Hourly
11,1,Electricity:Facility [J] !Hourly
47,1,InteriorLights:Electricity [J] !Hourly
184,1,InteriorEquipment:Electricity [J] !Hourly
1069,1,Pumps:Electricity [J] !Hourly
968,1,Cooling:Electricity [J] !Hourly
334,1,WaterSystems:Electricity [J] !Hourly
1002,1,Gas:Facility [J] !Hourly
1026,1,Heating:Gas [J] !Hourly
208,1,Receptacle:InteriorEquipment:Electricity [J] !Hourly
71,1,ComplianceLtg:InteriorLights:Electricity [J] !Hourly
End of Data Dictionary
1,SACRAMENTO-EXECUTIVE_724830_CZ2010,  38.50,-121.50,  -8.00,   5.00
2,1, 1, 1, 0, 1, 0.00,60.00,Holiday
11,4567687.158503337
47,594224.1902879989
71,594224.1902879989
184,1485560.4757199924
208,1485560.4757199924
334,0.0
914,2461529.706756833
968,26372.78573851277
1002,1399792.9291605163
1026,1399792.9291605163
1039,0.0
1069,0.0
2,1, 1, 1, 0, 2, 0.00,60.00,Holiday
11,4977796.725002841
47,594224.1902879989
71,594224.1902879989
184,1485560.4757199924
208,1485560.4757199924
334,0.0
914,2871784.6578829719
968,26227.401111878135
1002,2342011.1835306857
1026,2342011.1835306857
1039,0.0
1069,0.0
2,1, 1, 1, 0, 3, 0.00,60.00,Holiday
11,5015907.206481491
47,594224.1902879989
71,594224.1902879989
184,1485560.4757199924
208,1485560.4757199924
334,0.0
914,2871784.6578829719
968,64337.88259052871
1002,1204371.7306737067
1026,1204371.7306737067
1039,0.0
1069,0.0
2,1, 1, 1, 0, 4, 0.00,60.00,Holiday
11,4577480.864978312
47,594224.1902879989
71,594224.1902879989
184,1485560.4757199924
208,1485560.4757199924
334,0.0
914,2461529.706756833
968,36166.49221348726
1002,1334074.7437322115
1026,1334074.7437322115
1039,0.0
1069,0.0
2,1, 1, 1, 0, 5, 0.00,60.00,Holiday
11,5942128.0637309099
47,594224.1902879989
71,594224.1902879989
184,1485560.4757199924
208,1485560.4757199924
334,952868.0034563802
914,2871784.6578829719
968,37690.7363835668
1002,2110917.7637178308
1026,2110917.7637178308
1039,0.0
1069,0.0
2,1, 1, 1, 0, 6, 0.00,60.00,Holiday
11,5361824.275017101
47,594224.1902879989
71,594224.1902879989
184,1485560.4757199924
208,1485560.4757199924
334,0.0
914,3282039.6090091106
968,0.0
1002,4456875.517436523
1026,4456875.517436523
1039,0.0
1069,0.0
2,1, 1, 1, 0, 7, 0.00,60.00,Holiday
11,5361824.275017101
47,594224.1902879989
71,594224.1902879989
184,1485560.4757199924
208,1485560.4757199924
334,0.0
914,3282039.6090091106
968,0.0
1002,4796784.175812798
1026,4796784.175812798
1039,0.0
1069,0.0
2,1, 1, 1, 0, 8, 0.00,60.00,Holiday
11,6314672.6536866319
47,594224.1902879989
71,594224.1902879989
184,1485560.4757199924
208,1485560.4757199924
334,952848.3786695298
914,3282039.6090091106
968,0.0
1002,4892628.7411822839
1026,4892628.7411822839
1039,0.0
1069,0.0
2,1, 1, 1, 0, 9, 0.00,60.00,Holiday
11,5361824.275017101
47,594224.1902879989
71,594224.1902879989
184,1485560.4757199924
208,1485560.4757199924
334,0.0
914,3282039.6090091106
968,0.0
1002,4870599.2497371309
1026,4870599.2497371309
1039,0.0
1069,0.0
2,1, 1, 1, 0,10, 0.00,60.00,Holiday
11,5361824.275017101
47,594224.1902879989
71,594224.1902879989
184,1485560.4757199924
208,1485560.4757199924
334,0.0
914,3282039.6090091106
968,0.0
1002,4935263.111428434
1026,4935263.111428434
1039,0.0
1069,0.0
2,1, 1, 1, 0,11, 0.00,60.00,Holiday
11,5361824.275017101
47,594224.1902879989
71,594224.1902879989
184,1485560.4757199924
208,1485560.4757199924
334,0.0
914,3282039.6090091106
968,0.0
1002,4891179.872505395
1026,4891179.872505395
1039,0.0
1069,0.0
2,1, 1, 1, 0,12, 0.00,60.00,Holiday
11,6316868.02031775
47,594224.1902879989
71,594224.1902879989
184,1485560.4757199924
208,1485560.4757199924
334,955043.7453006487
914,3282039.6090091106
968,0.0
1002,4830221.968694225
1026,4830221.968694225
1039,0.0
1069,0.0
2,1, 1, 1, 0,13, 0.00,60.00,Holiday
11,5361824.275017101
47,594224.1902879989
71,594224.1902879989
184,1485560.4757199924
208,1485560.4757199924
334,0.0
914,3282039.6090091106
968,0.0
1002,4878050.326908459
1026,4878050.326908459
1039,0.0
1069,0.0
2,1, 1, 1, 0,14, 0.00,60.00,Holiday
11,5361824.275017101
47,594224.1902879989
71,594224.1902879989
184,1485560.4757199924
208,1485560.4757199924
334,0.0
914,3282039.6090091106
968,0.0
1002,4345437.806203954
1026,4345437.806203954
1039,0.0
1069,0.0
2,1, 1, 1, 0,15, 0.00,60.00,Holiday
11,6316864.655298872
47,594224.1902879989
71,594224.1902879989
184,1485560.4757199924
208,1485560.4757199924
334,955040.3802817704
914,3282039.6090091106
968,0.0
1002,3882684.0131840968
1026,3882684.0131840968
1039,0.0
1069,0.0
2,1, 1, 1, 0,16, 0.00,60.00,Holiday
11,5361824.275017101
47,594224.1902879989
71,594224.1902879989
184,1485560.4757199924
208,1485560.4757199924
334,0.0
914,3282039.6090091106
968,0.0
1002,3747199.967510531
1026,3747199.967510531
1039,0.0
1069,0.0
2,1, 1, 1, 0,17, 0.00,60.00,Holiday
11,5361824.275017101
47,594224.1902879989
71,594224.1902879989
184,1485560.4757199924
208,1485560.4757199924
334,0.0
914,3282039.6090091106
968,0.0
1002,3456497.771989289
1026,3456497.771989289
1039,0.0
1069,0.0
2,1, 1, 1, 0,18, 0.00,60.00,Holiday
11,5361824.275017101
47,594224.1902879989
71,594224.1902879989
184,1485560.4757199924
208,1485560.4757199924
334,0.0
914,3282039.6090091106
968,0.0
1002,3281897.819508776
1026,3281897.819508776
1039,0.0
1069,0.0
2,1, 1, 1, 0,19, 0.00,60.00,Holiday
11,5532734.298593512
47,594224.1902879989
71,594224.1902879989
184,1485560.4757199924
208,1485560.4757199924
334,952868.1172914562
914,2461529.706756833
968,38551.80853723147
1002,878042.9689591907
1026,878042.9689591907
1039,0.0
1069,0.0
2,1, 1, 1, 0,20, 0.00,60.00,Holiday
11,4993572.174950373
47,594224.1902879989
71,594224.1902879989
184,1485560.4757199924
208,1485560.4757199924
334,0.0
914,2871784.6578829719
968,42002.85105941105
1002,1622695.2303048294
1026,1622695.2303048294
1039,0.0
1069,0.0
2,1, 1, 1, 0,21, 0.00,60.00,Holiday
11,5041904.53388056
47,594224.1902879989
71,594224.1902879989
184,1485560.4757199924
208,1485560.4757199924
334,0.0
914,2871784.6578829719
968,90335.20998959668
1002,975217.7755469838
1026,975217.7755469838
1039,0.0
1069,0.0
2,1, 1, 1, 0,22, 0.00,60.00,Holiday
11,5540045.897523207
47,594224.1902879989
71,594224.1902879989
184,1485560.4757199924
208,1485560.4757199924
334,956121.6409576224
914,2461529.706756833
968,42609.88380076041
1002,1199398.3253053954
1026,1199398.3253053954
1039,0.0
1069,0.0
2,1, 1, 1, 0,23, 0.00,60.00,Holiday
11,4989911.173779304
47,594224.1902879989
71,594224.1902879989
184,1485560.4757199924
208,1485560.4757199924
334,0.0
914,2871784.6578829719
968,38341.84988834133
1002,2083654.2243323664
1026,2083654.2243323664
1039,0.0
1069,0.0
2,1, 1, 1, 0,24, 0.00,60.00,Holiday
11,5011973.454433626
47,594224.1902879989
71,594224.1902879989
184,1485560.4757199924
208,1485560.4757199924
334,0.0
914,2871784.6578829719
968,60404.13054266224
1002,1213182.4189722322
1026,1213182.4189722322
1039,0.0
1069,0.0
2,2, 1, 2, 0, 1, 0.00,60.00,Friday
11,4562996.343153669
47,594224.1902879989
71,594224.1902879989
184,1485560.4757199924
208,1485560.4757199924
334,0.0
914,2461529.706756833
968,21681.9703888451
1002,1453034.0596333913
1026,1453034.0596333913
1039,0.0
1069,0.0
2,2, 1, 2, 0, 2, 0.00,60.00,Friday
11,5905511.129634204
47,594224.1902879989
71,594224.1902879989
184,1485560.4757199924
208,1485560.4757199924
334,953941.8057432418
914,2871784.6578829719
968,0.0
1002,2562838.6448361866
1026,2562838.6448361866
1039,0.0
1069,0.0
2,2, 1, 2, 0, 3, 0.00,60.00,Friday
11,4951569.323890963
47,594224.1902879989
71,594224.1902879989
184,1485560.4757199924
208,1485560.4757199924
334,0.0
914,2871784.6578829719
968,0.0
1002,1434905.2355726287
1026,1434905.2355726287
1039,0.0
1069,0.0
2,2, 1, 2, 0, 4, 0.00,60.00,Friday
11,4574363.648792039
47,594224.1902879989
71,594224.1902879989
184,1485560.4757199924
208,1485560.4757199924
334,0.0
914,2461529.706756833
968,33049.27602721447
1002,2353386.4394495787
1026,2353386.4394495787
1039,0.0
1069,0.0
2,2, 1, 2, 0, 5, 0.00,60.00,Friday
11,4575208.164150065
47,594224.1902879989
71,594224.1902879989
184,1485560.4757199924
208,1485560.4757199924
334,0.0
914,2461529.706756833
968,33893.79138524115
1002,1093193.0418089622
1026,1093193.0418089622
1039,0.0
1069,0.0
2,2, 1, 2, 0, 6, 0.00,60.00,Friday
11,8398652.854367158
47,1188448.3805759978
71,1188448.3805759978
184,2971120.9514399848
208,2971120.9514399848
334,957043.9133420638
914,3282039.6090091106
968,0.0
1002,36201308.58427882
1026,36201308.58427882
1039,0.0
1069,0.0
2,2, 1, 2, 0, 7, 0.00,60.00,Friday
11,7441608.941025093
47,1188448.3805759978
71,1188448.3805759978
184,2971120.9514399848
208,2971120.9514399848
334,0.0
914,3282039.6090091106
968,0.0
1002,35613851.72427808
1026,35613851.72427808
1039,0.0
1069,0.0
2,2, 1, 2, 0, 8, 0.00,60.00,Friday
11,16730091.984737777
47,3565345.141727993
71,3565345.141727993
184,8913362.854319955
208,8913362.854319955
334,969344.3796807199
914,3282039.6090091106
968,0.0
1002,31470980.656049447
1026,31470980.656049447
1039,0.0
1069,0.0
2,2, 1, 2, 0, 9, 0.00,60.00,Friday
11,38734827.56445051
47,7724914.473743984
71,7724914.473743984
184,26740088.562959859
208,26740088.562959859
334,987784.9187375602
914,3282039.6090091106
968,0.0
1002,19304194.03798621
1026,19304194.03798621
1039,0.0
1069,0.0
2,2, 1, 2, 0,10, 0.00,60.00,Friday
11,39729529.82081711
47,7724914.473743984
71,7724914.473743984
184,26740088.562959859
208,26740088.562959859
334,1982487.1751041632
914,3282039.6090091106
968,0.0
1002,16774809.921461903
1026,16774809.921461903
1039,0.0
1069,0.0
2,2, 1, 2, 0,11, 0.00,60.00,Friday
11,38739321.04851569
47,7724914.473743984
71,7724914.473743984
184,26740088.562959859
208,26740088.562959859
334,992278.4028027481
914,3282039.6090091106
968,0.0
1002,14270624.065832755
1026,14270624.065832755
1039,0.0
1069,0.0
2,2, 1, 2, 0,12, 0.00,60.00,Friday
11,39750764.553364638
47,7724914.473743984
71,7724914.473743984
184,26740088.562959859
208,26740088.562959859
334,2003721.9076516829
914,3282039.6090091106
968,0.0
1002,12544556.355766913
1026,12544556.355766913
1039,0.0
1069,0.0
2,2, 1, 2, 0,13, 0.00,60.00,Friday
11,39774850.730543147
47,7724914.473743984
71,7724914.473743984
184,26740088.562959859
208,26740088.562959859
334,2027808.0848301983
914,3282039.6090091106
968,0.0
1002,12269786.381941943
1026,12269786.381941943
1039,0.0
1069,0.0
2,2, 1, 2, 0,14, 0.00,60.00,Friday
11,39767646.44863375
47,7724914.473743984
71,7724914.473743984
184,26740088.562959859
208,26740088.562959859
334,2020603.8029208068
914,3282039.6090091106
968,0.0
1002,9164867.14813911
1026,9164867.14813911
1039,0.0
1069,0.0
2,2, 1, 2, 0,15, 0.00,60.00,Friday
11,39719941.38937364
47,7724914.473743984
71,7724914.473743984
184,26740088.562959859
208,26740088.562959859
334,1972898.7436606903
914,3282039.6090091106
968,0.0
1002,7132741.29363201
1026,7132741.29363201
1039,0.0
1069,0.0
2,2, 1, 2, 0,16, 0.00,60.00,Friday
11,38732312.67967705
47,7724914.473743984
71,7724914.473743984
184,26740088.562959859
208,26740088.562959859
334,985270.0339640988
914,3282039.6090091106
968,0.0
1002,5719838.388987131
1026,5719838.388987131
1039,0.0
1069,0.0
2,2, 1, 2, 0,17, 0.00,60.00,Friday
11,39743471.702118847
47,7724914.473743984
71,7724914.473743984
184,26740088.562959859
208,26740088.562959859
334,1996429.0564058922
914,3282039.6090091106
968,0.0
1002,4895621.473055216
1026,4895621.473055216
1039,0.0
1069,0.0
2,2, 1, 2, 0,18, 0.00,60.00,Friday
11,23274500.40942919
47,4159569.3320159919
71,4159569.3320159919
184,14855604.757199923
208,14855604.757199923
334,977286.7112041619
914,3282039.6090091106
968,0.0
1002,12336398.701417828
1026,12336398.701417828
1039,0.0
1069,0.0
2,2, 1, 2, 0,19, 0.00,60.00,Friday
11,15760747.605057057
47,3565345.141727993
71,3565345.141727993
184,8913362.854319955
208,8913362.854319955
334,0.0
914,3282039.6090091106
968,0.0
1002,16422299.760939395
1026,16422299.760939395
1039,0.0
1069,0.0
2,2, 1, 2, 0,20, 0.00,60.00,Friday
11,16725721.773071908
47,3565345.141727993
71,3565345.141727993
184,8913362.854319955
208,8913362.854319955
334,964974.1680148483
914,3282039.6090091106
968,0.0
1002,17781496.53753198
1026,17781496.53753198
1039,0.0
1069,0.0
2,2, 1, 2, 0,21, 0.00,60.00,Friday
11,12568130.186250439
47,2376896.7611519957
71,2376896.7611519957
184,5942241.902879969
208,5942241.902879969
334,966951.913209363
914,3282039.6090091106
968,0.0
1002,20951655.196483878
1026,20951655.196483878
1039,0.0
1069,0.0
2,2, 1, 2, 0,22, 0.00,60.00,Friday
11,11601178.273041076
47,2376896.7611519957
71,2376896.7611519957
184,5942241.902879969
208,5942241.902879969
334,0.0
914,3282039.6090091106
968,0.0
1002,21983807.33178144
1026,21983807.33178144
1039,0.0
1069,0.0
2,2, 1, 2, 0,23, 0.00,60.00,Friday
11,8395551.217726525
47,1188448.3805759978
71,1188448.3805759978
184,2971120.9514399848
208,2971120.9514399848
334,953942.2767014325
914,3282039.6090091106
968,0.0
1002,24594173.34694899
1026,24594173.34694899
1039,0.0
1069,0.0
2,2, 1, 2, 0,24, 0.00,60.00,Friday
11,5361824.275017101
47,594224.1902879989
71,594224.1902879989
184,1485560.4757199924
208,1485560.4757199924
334,0.0
914,3282039.6090091106
968,0.0
1002,26750948.53097836
1026,26750948.53097836
1039,0.0
1069,0.0
2,3, 1, 3, 0, 1, 0.00,60.00,Saturday
11,2079784.6660079912
47,594224.1902879989
71,594224.1902879989
184,1485560.4757199924
208,1485560.4757199924
334,0.0
914,0.0
968,0.0
1002,0.0
1026,0.0
1039,0.0
1069,0.0
2,3, 1, 3, 0, 2, 0.00,60.00,Saturday
11,2079784.6660079912
47,594224.1902879989
71,594224.1902879989
184,1485560.4757199924
208,1485560.4757199924
334,0.0
914,0.0
968,0.0
1002,0.0
1026,0.0
1039,0.0
1069,0.0
2,3, 1, 3, 0, 3, 0.00,60.00,Saturday
11,3033721.029014794
47,594224.1902879989
71,594224.1902879989
184,1485560.4757199924
208,1485560.4757199924
334,953936.3630068026
914,0.0
968,0.0
1002,0.0
1026,0.0
1039,0.0
1069,0.0
2,3, 1, 3, 0, 4, 0.00,60.00,Saturday
11,2079784.6660079912
47,594224.1902879989
71,594224.1902879989
184,1485560.4757199924
208,1485560.4757199924
334,0.0
914,0.0
968,0.0
1002,0.0
1026,0.0
1039,0.0
1069,0.0
2,3, 1, 3, 0, 5, 0.00,60.00,Saturday
11,2079784.6660079912
47,594224.1902879989
71,594224.1902879989
184,1485560.4757199924
208,1485560.4757199924
334,0.0
914,0.0
968,0.0
1002,0.0
1026,0.0
1039,0.0
1069,0.0
2,3, 1, 3, 0, 6, 0.00,60.00,Saturday
11,6319060.790723134
47,594224.1902879989
71,594224.1902879989
184,1485560.4757199924
208,1485560.4757199924
334,957236.5157060322
914,3282039.6090091106
968,0.0
1002,35928933.599379967
1026,35928933.599379967
1039,0.0
1069,0.0
2,3, 1, 3, 0, 7, 0.00,60.00,Saturday
11,7441608.941025093
47,1188448.3805759978
71,1188448.3805759978
184,2971120.9514399848
208,2971120.9514399848
334,0.0
914,3282039.6090091106
968,0.0
1002,33991865.08723941
1026,33991865.08723941
1039,0.0
1069,0.0
2,3, 1, 3, 0, 8, 0.00,60.00,Saturday
11,7981621.064519169
47,1188448.3805759978
71,1188448.3805759978
184,2971120.9514399848
208,2971120.9514399848
334,540012.1234940754
914,3282039.6090091106
968,0.0
1002,33525271.374055074
1026,33525271.374055074
1039,0.0
1069,0.0
2,3, 1, 3, 0, 9, 0.00,60.00,Saturday
11,16182997.90787967
47,3565345.141727993
71,3565345.141727993
184,8913362.854319955
208,8913362.854319955
334,422250.30282261266
914,3282039.6090091106
968,0.0
1002,28861546.30982119
1026,28861546.30982119
1039,0.0
1069,0.0
2,3, 1, 3, 0,10, 0.00,60.00,Saturday
11,16732455.616210532
47,3565345.141727993
71,3565345.141727993
184,8913362.854319955
208,8913362.854319955
334,971708.0111534748
914,3282039.6090091106
968,0.0
1002,25313358.103981034
1026,25313358.103981034
1039,0.0
1069,0.0
2,3, 1, 3, 0,11, 0.00,60.00,Saturday
11,16730155.233655904
47,3565345.141727993
71,3565345.141727993
184,8913362.854319955
208,8913362.854319955
334,969407.6285988481
914,3282039.6090091106
968,0.0
1002,20850879.764051238
1026,20850879.764051238
1039,0.0
1069,0.0
2,3, 1, 3, 0,12, 0.00,60.00,Saturday
11,16734668.735571865
47,3565345.141727993
71,3565345.141727993
184,8913362.854319955
208,8913362.854319955
334,973921.1305148072
914,3282039.6090091106
968,0.0
1002,16846068.19441991
1026,16846068.19441991
1039,0.0
1069,0.0
2,3, 1, 3, 0,13, 0.00,60.00,Saturday
11,10491902.964561094
47,1782672.5708639965
71,1782672.5708639965
184,4456681.427159977
208,4456681.427159977
334,970509.357528009
914,3282039.6090091106
968,0.0
1002,16984443.698748735
1026,16984443.698748735
1039,0.0
1069,0.0
2,3, 1, 3, 0,14, 0.00,60.00,Saturday
11,9521393.607033084
47,1782672.5708639965
71,1782672.5708639965
184,4456681.427159977
208,4456681.427159977
334,0.0
914,3282039.6090091106
968,0.0
1002,15269923.66600715
1026,15269923.66600715
1039,0.0
1069,0.0
2,3, 1, 3, 0,15, 0.00,60.00,Saturday
11,10486304.065000607
47,1782672.5708639965
71,1782672.5708639965
184,4456681.427159977
208,4456681.427159977
334,964910.4579675247
914,3282039.6090091106
968,0.0
1002,14256547.505718632
1026,14256547.505718632
1039,0.0
1069,0.0
2,3, 1, 3, 0,16, 0.00,60.00,Saturday
11,10483019.36135041
47,1782672.5708639965
71,1782672.5708639965
184,4456681.427159977
208,4456681.427159977
334,961625.7543173254
914,3282039.6090091106
968,0.0
1002,13815531.408393205
1026,13815531.408393205
1039,0.0
1069,0.0
2,3, 1, 3, 0,17, 0.00,60.00,Saturday
11,9521393.607033084
47,1782672.5708639965
71,1782672.5708639965
184,4456681.427159977
208,4456681.427159977
334,0.0
914,3282039.6090091106
968,0.0
1002,14068459.29296613
1026,14068459.29296613
1039,0.0
1069,0.0
2,3, 1, 3, 0,18, 0.00,60.00,Saturday
11,6317964.359794085
47,594224.1902879989
71,594224.1902879989
184,1485560.4757199924
208,1485560.4757199924
334,956140.0847769837
914,3282039.6090091106
968,0.0
1002,16923902.360388016
1026,16923902.360388016
1039,0.0
1069,0.0
2,3, 1, 3, 0,19, 0.00,60.00,Saturday
11,5361824.275017101
47,594224.1902879989
71,594224.1902879989
184,1485560.4757199924
208,1485560.4757199924
334,0.0
914,3282039.6090091106
968,0.0
1002,18618712.915764918
1026,18618712.915764918
1039,0.0
1069,0.0
2,3, 1, 3, 0,20, 0.00,60.00,Saturday
11,2079784.6660079912
47,594224.1902879989
71,594224.1902879989
184,1485560.4757199924
208,1485560.4757199924
334,0.0
914,0.0
968,0.0
1002,0.0
1026,0.0
1039,0.0
1069,0.0
2,3, 1, 3, 0,21, 0.00,60.00,Saturday
11,3035913.115964
47,594224.1902879989
71,594224.1902879989
184,1485560.4757199924
208,1485560.4757199924
334,956128.4499560089
914,0.0
968,0.0
1002,0.0
1026,0.0
1039,0.0
1069,0.0
2,3, 1, 3, 0,22, 0.00,60.00,Saturday
11,2079784.6660079912
47,594224.1902879989
71,594224.1902879989
184,1485560.4757199924
208,1485560.4757199924
334,0.0
914,0.0
968,0.0
1002,0.0
1026,0.0
1039,0.0
1069,0.0
2,3, 1, 3, 0,23, 0.00,60.00,Saturday
11,2079784.6660079912
47,594224.1902879989
71,594224.1902879989
184,1485560.4757199924
208,1485560.4757199924
334,0.0
914,0.0
968,0.0
1002,0.0
1026,0.0
1039,0.0
1069,0.0
2,3, 1, 3, 0,24, 0.00,60.00,Saturday
11,3033703.5651835876
47,594224.1902879989
71,594224.1902879989
184,1485560.4757199924
208,1485560.4757199924
334,953918.8991755958
914,0.0
968,0.0
1002,0.0
1026,0.0
1039,0.0
1069,0.0
2,4, 1, 4, 0, 1, 0.00,60.00,Sunday
11,2079784.6660079912
47,594224.1902879989
71,594224.1902879989
184,1485560.4757199924
208,1485560.4757199924
334,0.0
914,0.0
968,0.0
1002,0.0
1026,0.0
1039,0.0
1069,0.0
2,4, 1, 4, 0, 2, 0.00,60.00,Sunday
11,2079784.6660079912
47,594224.1902879989
71,594224.1902879989
184,1485560.4757199924
208,1485560.4757199924
334,0.0
914,0.0
968,0.0
1002,0.0
1026,0.0
1039,0.0
1069,0.0
2,4, 1, 4, 0, 3, 0.00,60.00,Sunday
11,2079784.6660079912
47,594224.1902879989
71,594224.1902879989
184,1485560.4757199924
208,1485560.4757199924
334,0.0
914,0.0
968,0.0
1002,0.0
1026,0.0
1039,0.0
1069,0.0
2,4, 1, 4, 0, 4, 0.00,60.00,Sunday
11,3032624.558107247
47,594224.1902879989
71,594224.1902879989
184,1485560.4757199924
208,1485560.4757199924
334,952839.8920992557
914,0.0
968,0.0
1002,0.0
1026,0.0
1039,0.0
1069,0.0
2,4, 1, 4, 0, 5, 0.00,60.00,Sunday
11,2079784.6660079912
47,594224.1902879989
71,594224.1902879989
184,1485560.4757199924
208,1485560.4757199924
334,0.0
914,0.0
968,0.0
1002,0.0
1026,0.0
1039,0.0
1069,0.0
2,4, 1, 4, 0, 6, 0.00,60.00,Sunday
11,5361824.275017101
47,594224.1902879989
71,594224.1902879989
184,1485560.4757199924
208,1485560.4757199924
334,0.0
914,3282039.6090091106
968,0.0
1002,7710768.191334751
1026,7710768.191334751
1039,0.0
1069,0.0
2,4, 1, 4, 0, 7, 0.00,60.00,Sunday
11,5361824.275017101
47,594224.1902879989
71,594224.1902879989
184,1485560.4757199924
208,1485560.4757199924
334,0.0
914,3282039.6090091106
968,0.0
1002,8696622.494820642
1026,8696622.494820642
1039,0.0
1069,0.0
2,4, 1, 4, 0, 8, 0.00,60.00,Sunday
11,6314692.067975535
47,594224.1902879989
71,594224.1902879989
184,1485560.4757199924
208,1485560.4757199924
334,952867.7929584333
914,3282039.6090091106
968,0.0
1002,9710323.502599217
1026,9710323.502599217
1039,0.0
1069,0.0
2,4, 1, 4, 0, 9, 0.00,60.00,Sunday
11,5361824.275017101
47,594224.1902879989
71,594224.1902879989
184,1485560.4757199924
208,1485560.4757199924
334,0.0
914,3282039.6090091106
968,0.0
1002,9740178.868556593
1026,9740178.868556593
1039,0.0
1069,0.0
2,4, 1, 4, 0,10, 0.00,60.00,Sunday
11,5361824.275017101
47,594224.1902879989
71,594224.1902879989
184,1485560.4757199924
208,1485560.4757199924
334,0.0
914,3282039.6090091106
968,0.0
1002,7813394.6778873
1026,7813394.6778873
1039,0.0
1069,0.0
2,4, 1, 4, 0,11, 0.00,60.00,Sunday
11,5361824.275017101
47,594224.1902879989
71,594224.1902879989
184,1485560.4757199924
208,1485560.4757199924
334,0.0
914,3282039.6090091106
968,0.0
1002,5017887.870813403
1026,5017887.870813403
1039,0.0
1069,0.0
2,4, 1, 4, 0,12, 0.00,60.00,Sunday
11,6316858.207703087
47,594224.1902879989
71,594224.1902879989
184,1485560.4757199924
208,1485560.4757199924
334,955033.9326859848
914,3282039.6090091106
968,0.0
1002,2251901.2922856968
1026,2251901.2922856968
1039,0.0
1069,0.0
2,4, 1, 4, 0,13, 0.00,60.00,Sunday
11,5361824.275017101
47,594224.1902879989
71,594224.1902879989
184,1485560.4757199924
208,1485560.4757199924
334,0.0
914,3282039.6090091106
968,0.0
1002,181855.31685608408
1026,181855.31685608408
1039,0.0
1069,0.0
2,4, 1, 4, 0,14, 0.00,60.00,Sunday
11,6320119.0387177
47,594224.1902879989
71,594224.1902879989
184,1485560.4757199924
208,1485560.4757199924
334,958294.7637005987
914,3282039.6090091106
968,0.0
1002,0.0
1026,0.0
1039,0.0
1069,0.0
2,4, 1, 4, 0,15, 0.00,60.00,Sunday
11,5361824.275017101
47,594224.1902879989
71,594224.1902879989
184,1485560.4757199924
208,1485560.4757199924
334,0.0
914,3282039.6090091106
968,0.0
1002,0.0
1026,0.0
1039,0.0
1069,0.0
2,4, 1, 4, 0,16, 0.00,60.00,Sunday
11,5361824.275017101
47,594224.1902879989
71,594224.1902879989
184,1485560.4757199924
208,1485560.4757199924
334,0.0
914,3282039.6090091106
968,0.0
1002,0.0
1026,0.0
1039,0.0
1069,0.0
2,4, 1, 4, 0,17, 0.00,60.00,Sunday
11,5361824.275017101
47,594224.1902879989
71,594224.1902879989
184,1485560.4757199924
208,1485560.4757199924
334,0.0
914,3282039.6090091106
968,0.0
1002,0.0
1026,0.0
1039,0.0
1069,0.0
2,4, 1, 4, 0,18, 0.00,60.00,Sunday
11,6314685.395267227
47,594224.1902879989
71,594224.1902879989
184,1485560.4757199924
208,1485560.4757199924
334,952861.1202501255
914,3282039.6090091106
968,0.0
1002,0.0
1026,0.0
1039,0.0
1069,0.0
2,4, 1, 4, 0,19, 0.00,60.00,Sunday
11,2079784.6660079912
47,594224.1902879989
71,594224.1902879989
184,1485560.4757199924
208,1485560.4757199924
334,0.0
914,0.0
968,0.0
1002,0.0
1026,0.0
1039,0.0
1069,0.0
2,4, 1, 4, 0,20, 0.00,60.00,Sunday
11,2079784.6660079912
47,594224.1902879989
71,594224.1902879989
184,1485560.4757199924
208,1485560.4757199924
334,0.0
914,0.0
968,0.0
1002,0.0
1026,0.0
1039,0.0
1069,0.0
2,4, 1, 4, 0,21, 0.00,60.00,Sunday
11,2079784.6660079912
47,594224.1902879989
71,594224.1902879989
184,1485560.4757199924
208,1485560.4757199924
334,0.0
914,0.0
968,0.0
1002,0.0
1026,0.0
1039,0.0
1069,0.0
2,4, 1, 4, 0,22, 0.00,60.00,Sunday
11,3035879.139860538
47,594224.1902879989
71,594224.1902879989
184,1485560.4757199924
208,1485560.4757199924
334,956094.4738525464
914,0.0
968,0.0
1002,0.0
1026,0.0
1039,0.0
1069,0.0
2,4, 1, 4, 0,23, 0.00,60.00,Sunday
11,2918790.2284569579
47,594224.1902879989
71,594224.1902879989
184,1485560.4757199924
208,1485560.4757199924
334,0.0
914,820509.9022522776
968,18495.660196688757
1002,0.0
1026,0.0
1039,0.0
1069,0.0
2,4, 1, 4, 0,24, 0.00,60.00,Sunday
11,2920634.801282836
47,594224.1902879989
71,594224.1902879989
184,1485560.4757199924
208,1485560.4757199924
334,0.0
914,820509.9022522776
968,20340.23302256706
1002,0.0
1026,0.0
1039,0.0
1069,0.0
2,5, 1, 5, 0, 1, 0.00,60.00,Monday
11,2920744.1335276255
47,594224.1902879989
71,594224.1902879989
184,1485560.4757199924
208,1485560.4757199924
334,0.0
914,820509.9022522776
968,20449.56526735645
1002,0.0
1026,0.0
1039,0.0
1069,0.0
2,5, 1, 5, 0, 2, 0.00,60.00,Monday
11,3874760.3901601
47,594224.1902879989
71,594224.1902879989
184,1485560.4757199924
208,1485560.4757199924
334,953943.8366534301
914,820509.9022522776
968,20521.985246401062
1002,0.0
1026,0.0
1039,0.0
1069,0.0
2,5, 1, 5, 0, 3, 0.00,60.00,Monday
11,2917631.812878291
47,594224.1902879989
71,594224.1902879989
184,1485560.4757199924
208,1485560.4757199924
334,0.0
914,820509.9022522776
968,17337.244618022043
1002,0.0
1026,0.0
1039,0.0
1069,0.0
2,5, 1, 5, 0, 4, 0.00,60.00,Monday
11,3738390.09865694
47,594224.1902879989
71,594224.1902879989
184,1485560.4757199924
208,1485560.4757199924
334,0.0
914,1641019.8045045553
968,17585.628144393413
1002,189131.00208583335
1026,189131.00208583335
1039,0.0
1069,0.0
2,5, 1, 5, 0, 5, 0.00,60.00,Monday
11,3872247.486152806
47,594224.1902879989
71,594224.1902879989
184,1485560.4757199924
208,1485560.4757199924
334,953756.7738508789
914,820509.9022522776
968,18196.144041658426
1002,0.0
1026,0.0
1039,0.0
1069,0.0
2,5, 1, 5, 0, 6, 0.00,60.00,Monday
11,7441608.941025093
47,1188448.3805759978
71,1188448.3805759978
184,2971120.9514399848
208,2971120.9514399848
334,0.0
914,3282039.6090091106
968,0.0
1002,28852463.228885149
1026,28852463.228885149
1039,0.0
1069,0.0
2,5, 1, 5, 0, 7, 0.00,60.00,Monday
11,7441608.941025093
47,1188448.3805759978
71,1188448.3805759978
184,2971120.9514399848
208,2971120.9514399848
334,0.0
914,3282039.6090091106
968,0.0
1002,34883458.26146327
1026,34883458.26146327
1039,0.0
1069,0.0
2,5, 1, 5, 0, 8, 0.00,60.00,Monday
11,16730180.405249414
47,3565345.141727993
71,3565345.141727993
184,8913362.854319955
208,8913362.854319955
334,969432.8001923551
914,3282039.6090091106
968,0.0
1002,30815458.031806828
1026,30815458.031806828
1039,0.0
1069,0.0
2,5, 1, 5, 0, 9, 0.00,60.00,Monday
11,39683510.64179431
47,7724914.473743984
71,7724914.473743984
184,26740088.562959859
208,26740088.562959859
334,1936467.9960813628
914,3282039.6090091106
968,0.0
1002,19498385.45290179
1026,19498385.45290179
1039,0.0
1069,0.0
2,5, 1, 5, 0,10, 0.00,60.00,Monday
11,38777249.50845381
47,7724914.473743984
71,7724914.473743984
184,26740088.562959859
208,26740088.562959859
334,1030206.8627408566
914,3282039.6090091106
968,0.0
1002,15151688.199793108
1026,15151688.199793108
1039,0.0
1069,0.0
2,5, 1, 5, 0,11, 0.00,60.00,Monday
11,39207759.38372343
47,7724914.473743984
71,7724914.473743984
184,26740088.562959859
208,26740088.562959859
334,1460716.738010484
914,3282039.6090091106
968,0.0
1002,10274452.276954206
1026,10274452.276954206
1039,0.0
1069,0.0
2,5, 1, 5, 0,12, 0.00,60.00,Monday
11,39277970.79782501
47,7724914.473743984
71,7724914.473743984
184,26740088.562959859
208,26740088.562959859
334,1530928.152112058
914,3282039.6090091106
968,0.0
1002,6168950.627639016
1026,6168950.627639016
1039,0.0
1069,0.0
2,5, 1, 5, 0,13, 0.00,60.00,Monday
11,39775106.55253665
47,7724914.473743984
71,7724914.473743984
184,26740088.562959859
208,26740088.562959859
334,2028063.9068236987
914,3282039.6090091106
968,0.0
1002,4410497.77121756
1026,4410497.77121756
1039,0.0
1069,0.0
2,5, 1, 5, 0,14, 0.00,60.00,Monday
11,39767900.11222542
47,7724914.473743984
71,7724914.473743984
184,26740088.562959859
208,26740088.562959859
334,2020857.4665124687
914,3282039.6090091106
968,0.0
1002,916376.5736192529
1026,916376.5736192529
1039,0.0
1069,0.0
2,5, 1, 5, 0,15, 0.00,60.00,Monday
11,39720189.88731399
47,7724914.473743984
71,7724914.473743984
184,26740088.562959859
208,26740088.562959859
334,1973147.2416010444
914,3282039.6090091106
968,0.0
1002,0.0
1026,0.0
1039,0.0
1069,0.0
2,5, 1, 5, 0,16, 0.00,60.00,Monday
11,38732436.7380245
47,7724914.473743984
71,7724914.473743984
184,26740088.562959859
208,26740088.562959859
334,985394.0923115573
914,3282039.6090091106
968,0.0
1002,0.0
1026,0.0
1039,0.0
1069,0.0
2,5, 1, 5, 0,17, 0.00,60.00,Monday
11,39743722.00108209
47,7724914.473743984
71,7724914.473743984
184,26740088.562959859
208,26740088.562959859
334,1996679.3553691419
914,3282039.6090091106
968,0.0
1002,0.0
1026,0.0
1039,0.0
1069,0.0
2,5, 1, 5, 0,18, 0.00,60.00,Monday
11,23274365.682037698
47,4159569.3320159919
71,4159569.3320159919
184,14855604.757199923
208,14855604.757199923
334,977151.9838126702
914,3282039.6090091106
968,0.0
1002,4110473.7514325289
1026,4110473.7514325289
1039,0.0
1069,0.0
2,5, 1, 5, 0,19, 0.00,60.00,Monday
11,16732402.43352556
47,3565345.141727993
71,3565345.141727993
184,8913362.854319955
208,8913362.854319955
334,971654.8284685048
914,3282039.6090091106
968,0.0
1002,10045905.499595685
1026,10045905.499595685
1039,0.0
1069,0.0
2,5, 1, 5, 0,20, 0.00,60.00,Monday
11,15760747.605057057
47,3565345.141727993
71,3565345.141727993
184,8913362.854319955
208,8913362.854319955
334,0.0
914,3282039.6090091106
968,0.0
1002,12747686.629184312
1026,12747686.629184312
1039,0.0
1069,0.0
2,5, 1, 5, 0,21, 0.00,60.00,Monday
11,12568371.777339926
47,2376896.7611519957
71,2376896.7611519957