Program Version,EnergyPlus, Version 9.0.1-bb7ca4f0da, YMD=2019.12.18 16:51
1,5,Environment Title[],Latitude[deg],Longitude[deg],Time Zone[],Elevation[m]
2,8,Day of Simulation[],Month[],Day of Month[],DST Indicator[1=yes 0=no],Hour[],StartMinute[],EndMinute[],DayType
3,5,Cumulative Day of Simulation[],Month[],Day of Month[],DST Indicator[1=yes 0=no],DayType  ! When Daily Meters Requested
4,2,Cumulative Days of Simulation[],Month[]  ! When Monthly Meters Requested
5,1,Cumulative Days of Simulation[] ! When Run Period Meters Requested
6,1,Calendar Year of Simulation[] ! When Annual Meters Requested
4162,1,ProcessMotors:Fans:Electricity [J] !Hourly
4235,1,Heating:Electricity [J] !Hourly
47,1,InteriorLights:Electricity [J] !Hourly
11,1,Electricity:Facility [J] !Hourly
1497,1,Gas:Facility [J] !Hourly
993,1,InteriorEquipment:Electricity [J] !Hourly
4114,1,Fans:Electricity [J] !Hourly
4471,1,Pumps:Electricity [J] !Hourly
4350,1,Cooling:Electricity [J] !Hourly
2228,1,WaterSystems:Electricity [J] !Hourly
1533,1,InteriorEquipment:Gas [J] !Hourly
4222,1,Heating:Gas [J] !Hourly
2366,1,WaterSystems:Gas [J] !Hourly
1017,1,Receptacle:InteriorEquipment:Electricity [J] !Hourly
1557,1,Receptacle:InteriorEquipment:Gas [J] !Hourly
71,1,ComplianceLtg:InteriorLights:Electricity [J] !Hourly
346,1,NonComplianceLtg:InteriorLights:Electricity [J] !Hourly
4126,1,General:Fans:Electricity [J] !Hourly
End of Data Dictionary
1,BLUE-CANYON_725845_CZ2010,  39.30,-120.72,  -8.00,1609.00
2,1, 1, 1, 0, 1, 0.00,60.00,Holiday
11,78138565.2590828
47,24156278.99999996
71,4835078.999999999
346,19321199.999999968
993,18722069.99999997
1017,18722069.99999997
1497,131557038.62149129
1533,0.0
1557,0.0
2228,1545601.059771596
2366,1048379.6965385283
4114,33563035.11857705
4126,14016601.35756887
4162,14199365.105798258
4222,130508658.92495275
4235,2683.513242840134
4350,0.0
4471,148896.56749135158
2,1, 1, 1, 0, 2, 0.00,60.00,Holiday
11,81308920.79436864
47,24156278.99999996
71,4835078.999999999
346,19321199.999999968
993,18722069.99999997
1017,18722069.99999997
1497,225379336.90637029
1533,0.0
1557,0.0
2228,1545000.827387787
2366,1310436.3515287906
4114,36732497.22124341
4126,14895485.129210869
4162,14199365.105798258
4222,224068900.5548415
4235,4156.670484063315
4350,0.0
4471,148917.07525341377
2,1, 1, 1, 0, 3, 0.00,60.00,Holiday
11,83731856.88365683
47,24156278.99999996
71,4835078.999999999
346,19321199.999999968
993,18722069.99999997
1017,18722069.99999997
1497,294750816.91576948
1533,0.0
1557,0.0
2228,1543965.8350117086
2366,1048395.5150614432
4114,39153607.0766945
4126,15533930.804026384
4162,14199365.105798258
4222,293702421.400708
4235,7031.575687842211
4350,0.0
4471,148903.39626283409
2,1, 1, 1, 0, 4, 0.00,60.00,Holiday
11,84476859.37067816
47,24156278.99999996
71,4835078.999999999
346,19321199.999999968
993,18722069.99999997
1017,18722069.99999997
1497,331513193.90784248
1533,0.0
1557,0.0
2228,1034675.1904345449
2366,1303238.66289403
4114,40405674.86410271
4126,15533930.804026384
4162,14199365.105798258
4222,330209955.2449484
4235,8843.363086621735
4350,0.0
4471,149316.95305435098
2,1, 1, 1, 0, 5, 0.00,60.00,Holiday
11,86679371.40358024
47,24156278.99999996
71,4835078.999999999
346,19321199.999999968
993,18722069.99999997
1017,18722069.99999997
1497,362601077.646688
1533,0.0
1557,0.0
2228,1607734.728093578
2366,1042559.1031653832
4114,42025106.67302747
4126,15915547.821051427
4162,14199365.105798258
4222,361558518.54352256
4235,9855.671963375187
4350,0.0
4471,158325.33049587185
2,1, 1, 1, 0, 6, 0.00,60.00,Holiday
11,142231389.2019409
47,52754678.99999992
71,4835078.999999999
346,47919599.99999992
993,47320469.999999929
1017,47320469.999999929
1497,321461367.51055529
1533,0.0
1557,0.0
2228,1607846.550744188
2366,1240978.5452000532
4114,40371179.35430331
4126,16297564.296261333
4162,14199365.105798258
4222,320220388.96535518
4235,9955.657607510715
4350,0.0
4471,167258.63928594336
2,1, 1, 1, 0, 7, 0.00,60.00,Holiday
11,216907347.49408553
47,74203478.99999988
71,4835078.999999999
346,69368399.9999999
993,68769269.9999999
1017,68769269.9999999
1497,1014400557.2003937
1533,28597212.921243654
1557,28597212.921243654
2228,1622676.5118176849
2366,1120183.5118999445
4114,72130440.96082258
4126,16530672.212255951
4162,14199365.105798258
4222,984683160.76725
4235,10995.155755860686
4350,0.0
4471,170485.86568961392
2,1, 1, 1, 0, 8, 0.00,60.00,Holiday
11,204269321.67382003
47,74198174.23240194
71,4829774.232402056
346,69368399.9999999
993,68769269.9999999
1017,68769269.9999999
1497,755250843.4215759
1533,28597212.921243654
1557,28597212.921243654
2228,1739175.6085679169
2366,1333021.1607064144
4114,59381475.68429848
4126,16338978.752881162
4162,14199365.105798258
4222,725320609.3396258
4235,11877.22895543461
4350,0.0
4471,169348.9195963443
2,1, 1, 1, 0, 9, 0.00,60.00,Holiday
11,228751239.17677025
47,77829441.4142638
71,8461041.414263918
346,69368399.9999999
993,72641339.99999988
1017,72641339.99999988
1497,1092679626.6885782
1533,0.0
1557,0.0
2228,3334638.106100043
2366,1348397.3824264573
4114,73020682.81674528
4126,33922382.22966307
4162,14199365.105798258
4222,1091331229.3061517
4235,114826.05009938116
4350,0.0
4471,1810310.7895618343
2,1, 1, 1, 0,10, 0.00,60.00,Holiday
11,208549636.59941424
47,77747322.80483625
71,8378922.804836366
346,69368399.9999999
993,72641339.99999988
1017,72641339.99999988
1497,974187793.2655169
1533,0.0
1557,0.0
2228,2604639.2205789994
2366,1636714.341976856
4114,54579734.06817025
4126,16942516.65370136
4162,14199365.105798258
4222,972551078.9235401
4235,90882.19792813296
4350,0.0
4471,885718.30790073
2,1, 1, 1, 0,11, 0.00,60.00,Holiday
11,215164304.6598384
47,77679631.14638195
71,29760031.14638199
346,47919599.99999992
993,74424959.99999996
1017,74424959.99999996
1497,928709622.4497857
1533,0.0
1557,0.0
2228,7159593.509052495
2366,2130068.547558089
4114,55306725.031722437
4126,16620323.444356682
4162,14199365.105798258
4222,926579553.9022278
4235,73110.82538179368
4350,0.0
4471,520284.1472998414
2,1, 1, 1, 0,12, 0.00,60.00,Holiday
11,212869785.00481893
47,77133216.18001823
71,29213616.180018277
346,47919599.99999992
993,74424959.99999996
1017,74424959.99999996
1497,902475784.4490714
1533,11438885.168497468
1557,11438885.168497468
2228,6562601.56861637
2366,2398808.4162045146
4114,54193178.18293322
4126,16529088.075028666
4162,14199365.105798258
4222,888638090.8643694
4235,68870.3432493703
4350,0.0
4471,486958.73000183366
2,1, 1, 1, 0,13, 0.00,60.00,Holiday
11,236808517.70626537
47,86121450.02630119
71,38201850.02630122
346,47919599.99999992
993,89913239.99999997
1017,89913239.99999997
1497,810391075.1463218
1533,11438885.168497468
1557,11438885.168497468
2228,8629389.650969726
2366,2641634.721715559
4114,51656182.05091144
4126,16519577.605455209
4162,14199365.105798258
4222,796310555.2561088
4235,58842.363538237936
4350,0.0
4471,429413.6145448395
2,1, 1, 1, 0,14, 0.00,60.00,Holiday
11,234040458.5921304
47,86051225.6596558
71,38131625.65965582
346,47919599.99999992
993,89913239.99999997
1017,89913239.99999997
1497,751180581.3544433
1533,0.0
1557,0.0
2228,7808677.4043602929
2366,2734923.493990845
4114,49792324.59082529
4126,16519577.605455209
4162,14199365.105798258
4222,748445657.8604524
4235,56236.85020832564
4350,0.0
4471,418754.0870807627
2,1, 1, 1, 0,15, 0.00,60.00,Holiday
11,233802966.12452597
47,86732463.34613681
71,38812863.34613683
346,47919599.99999992
993,89913239.99999997
1017,89913239.99999997
1497,732405481.6295804
1533,0.0
1557,0.0
2228,7610855.806835036
2366,2484903.097300742
4114,49074019.88153901
4126,16519577.605455209
4162,14199365.105798258
4222,729920578.5322797
4235,54966.3373619939
4350,0.0
4471,417420.7526532144
2,1, 1, 1, 0,16, 0.00,60.00,Holiday
11,235498628.61111618
47,87425018.23004455
71,39505418.23004456
346,47919599.99999992
993,89913239.99999997
1017,89913239.99999997
1497,749063833.2230277
1533,0.0
1557,0.0
2228,7706726.3766218819
2366,2487270.910906593
4114,49979266.09404616
4126,16519577.605455209
4162,14199365.105798258
4222,746576562.3121212
4235,54654.763411260195
4350,0.0
4471,419723.1469924038
2,1, 1, 1, 0,17, 0.00,60.00,Holiday
11,240248982.2109399
47,89547543.9609335
71,41627943.960933517
346,47919599.99999992
993,89913239.99999997
1017,89913239.99999997
1497,800860988.5063158
1533,28597212.921243654
1557,28597212.921243654
2228,9039717.80414198
2366,2531446.2219775558
4114,51274193.46201118
4126,16519577.605455209
4162,14199365.105798258
4222,769732329.3630946
4235,54247.594706752636
4350,0.0
4471,420039.3891465737
2,1, 1, 1, 0,18, 0.00,60.00,Holiday
11,213672866.24204699
47,78647111.99999994
71,30727511.99999999
346,47919599.99999992
993,74424959.99999996
1017,74424959.99999996
1497,849031033.1337229
1533,28597212.921243654
1557,28597212.921243654
2228,7610537.239828799
2366,2474365.536776944
4114,52496422.23069009
4126,16519577.605455209
4162,14199365.105798258
4222,817959454.6757023
4235,60025.04394228084
4350,0.0
4471,433809.72758595817
2,1, 1, 1, 0,19, 0.00,60.00,Holiday
11,260953723.3398398
47,106749035.99999982
71,15931835.999999995
346,90817199.99999984
993,101834279.99999984
1017,101834279.99999984
1497,732770090.2815905
1533,28597212.921243654
1557,28597212.921243654
2228,5544480.892416179
2366,2061778.1514661359
4114,46267802.50465793
4126,14487417.026481724
4162,14199365.105798258
4222,702111099.2088807
4235,68281.94259701515
4350,0.0
4471,489842.0001689448
2,1, 1, 1, 0,20, 0.00,60.00,Holiday
11,285712968.3894482
47,124250678.9999998
71,4835078.999999999
346,119415599.9999998
993,118816469.99999982
1017,118816469.99999982
1497,282129743.51325407
1533,0.0
1557,0.0
2228,6316679.87301451
2366,2328125.478595187
4114,36329139.51643406
4126,8458341.339612136
4162,14199365.105798258
4222,279801618.03465887
4235,0.0
4350,0.0
4471,0.0
2,1, 1, 1, 0,21, 0.00,60.00,Holiday
11,310793360.3951975
47,138549878.9999998
71,4835078.999999999
346,133714799.99999979
993,133115669.99999979
1017,133115669.99999979
1497,242357438.57749469
1533,0.0
1557,0.0
2228,4670944.4573169299
2366,1706476.101269332
4114,34456866.93788099
4126,8458341.339612136
4162,14199365.105798258
4222,240650962.47622539
4235,0.0
4350,0.0
4471,0.0
2,1, 1, 1, 0,22, 0.00,60.00,Holiday
11,283967948.049154
47,124250678.9999998
71,4835078.999999999
346,119415599.9999998
993,118816469.99999982
1017,118816469.99999982
1497,262825517.487823
1533,0.0
1557,0.0
2228,3544273.5932929224
2366,1669024.447271019
4114,37306678.51029332
4126,10356826.851545962
4162,14199365.105798258
4222,261156493.040552
4235,110.23475662468101
4350,0.0
4471,49736.71081145189
2,1, 1, 1, 0,23, 0.00,60.00,Holiday
11,217527455.74173383
47,95652278.99999984
71,4835078.999999999
346,90817199.99999984
993,90218069.99999985
1017,90218069.99999985
1497,5299020.243051787
1533,0.0
1557,0.0
2228,2504714.11714934
2366,1332903.1223704667
4114,28985991.485189808
4126,14786626.379391553
4162,14199365.105798258
4222,3966117.1206813214
4235,710.0953091564537
4350,0.0
4471,165691.04408578756
2,1, 1, 1, 0,24, 0.00,60.00,Holiday
11,130602772.97584738
47,52754678.99999992
71,4835078.999999999
346,47919599.99999992
993,47320469.999999929
1017,47320469.999999929
1497,28035237.65095596
1533,0.0
1557,0.0
2228,803870.566184884
2366,1303179.201994201
4114,29565025.104243146
4126,14470212.127402582
4162,14199365.105798258
4222,26732058.448961758
4235,1462.4740861192339
4350,0.0
4471,157265.83133327854
2,2, 1, 2, 0, 1, 0.00,60.00,Friday
11,79125504.78708297
47,24156278.99999996
71,4835078.999999999
346,19321199.999999968
993,18722069.99999997
1017,18722069.99999997
1497,169887342.729277
1533,0.0
1557,0.0
2228,1213228.6772510112
2366,1033542.5977447971
4114,34881608.65719576
4126,14394235.972240096
4162,14199365.105798258
4222,168853800.13153223
4235,3508.2635841861667
4350,0.0
4471,148810.18905203595
2,2, 1, 2, 0, 2, 0.00,60.00,Friday
11,83780088.50062591
47,24156278.99999996
71,4835078.999999999
346,19321199.999999968
993,18722069.99999997
1017,18722069.99999997
1497,297853638.4644599
1533,0.0
1557,0.0
2228,1164862.879774742
2366,1039344.9618326221
4114,39581712.8466883
4126,15533930.804026384
4162,14199365.105798258
4222,296814293.50262728
4235,6326.453472302508
4350,0.0
4471,148837.32069063467
2,2, 1, 2, 0, 3, 0.00,60.00,Friday
11,85391827.69543952
47,24156278.99999996
71,4835078.999999999
346,19321199.999999968
993,18722069.99999997
1017,18722069.99999997
1497,351660992.0528268
1533,0.0
1557,0.0
2228,796485.690027518
2366,1039262.8819323459
4114,41559410.72363737
4126,15533930.804026384
4162,14199365.105798258
4222,350621729.1708945
4235,8378.50464257479
4350,0.0
4471,149203.777132113
2,2, 1, 2, 0, 4, 0.00,60.00,Friday
11,87346395.29112104
47,24156278.99999996
71,4835078.999999999
346,19321199.999999968
993,18722069.99999997
1017,18722069.99999997
1497,384339046.59397509
1533,0.0
1557,0.0
2228,1578372.363997357
2366,1058212.060695306
4114,42730114.91794181
4126,15533930.804026384
4162,14199365.105798258
4222,383280834.5332798
4235,9787.254640254621
4350,0.0
4471,149771.7545416765
2,2, 1, 2, 0, 5, 0.00,60.00,Friday
11,87786565.87315096
47,24156278.99999996
71,4835078.999999999
346,19321199.999999968
993,18722069.99999997
1017,18722069.99999997
1497,403403497.60479417
1533,0.0
1557,0.0
2228,789182.1477257925
2366,1267368.2014025138
4114,43950445.24868293
4126,15915586.68783793
4162,14199365.105798258
4222,402136129.40339168
4235,10008.985544542
4350,0.0
4471,158580.4911977612
2,2, 1, 2, 0, 6, 0.00,60.00,Friday
11,144648449.50787319
47,53890838.99999992
71,5971238.999999999
346,47919599.99999992
993,47871269.999999929
1017,47871269.999999929
1497,353328081.4401871
1533,0.0
1557,0.0
2228,789243.023180002
2366,1041124.6124443747
4114,41919883.64390704
4126,16297553.428301588
4162,14199365.105798258
4222,352286956.82774278
4235,9953.297917761176
4350,0.0
4471,167260.5428684376
2,2, 1, 2, 0, 7, 0.00,60.00,Friday
11,244941841.12268678
47,80361638.99999988
71,5971238.999999999
346,74390399.99999988
993,69320069.9999999
1017,69320069.9999999
1497,1520517907.3500159
1533,28597212.921243654
1557,28597212.921243654
2228,789092.6776713091
2366,1038530.0742377353
4114,92476215.97743155
4126,34925949.73676316
4162,14199365.105798258
4222,1490882164.3545347
4235,117687.17806006776
4350,0.0
4471,1877136.2895240398
2,2, 1, 2, 0, 8, 0.00,60.00,Friday
11,244004537.32924599
47,95789692.40281274
71,21399292.40281287
346,74390399.99999988
993,83139479.99999988
1017,83139479.99999988
1497,1131611036.8283303
1533,28882321.086319496
1557,28882321.086319496
2228,3510526.5696912666
2366,1997519.347056359
4114,60581039.017189938
4126,16907255.718967506
4162,14199365.105798258
4222,1100731196.3949545
4235,90870.20707183407
4350,0.0
4471,892929.1324803422
2,2, 1, 2, 0, 9, 0.00,60.00,Friday
11,296824978.9133539
47,122723662.68950267
71,48333262.689502809
346,74390399.99999988
993,112981499.99999987
1017,112981499.99999987
1497,924257100.5593507
1533,285108.16507584266
1557,285108.16507584266
2228,5620127.905777405
2366,2512447.0627390008
4114,54824130.87488407
4126,16599561.884397358
4162,14199365.105798258
4222,921459545.3315358
4235,73532.9990118414
4350,0.0
4471,602024.4441780875
2,2, 1, 2, 0,10, 0.00,60.00,Friday
11,354742038.3320477
47,149390811.4394415
71,75000411.43944158
346,74390399.99999988
993,143958059.99999995
1017,143958059.99999995
1497,840330234.9546564
1533,285108.16507584266
1557,285108.16507584266
2228,6848364.701584663
2366,3037388.6297717939
4114,53973066.77152163
4126,16563861.224142064
4162,14199365.105798258
4222,837007738.1598088
4235,57162.794227187755
4350,0.0
4471,514572.62527285379
2,2, 1, 2, 0,11, 0.00,60.00,Friday
11,316436088.57792618
47,128572564.46595635
71,75630964.46595636
346,52941599.9999999
993,122509259.99999996
1017,122509259.99999996
1497,866538602.9875418
1533,513194.69713651677
1557,513194.69713651677
2228,9161459.384601
2366,3622074.4436489108
4114,55639717.1625153
4126,16606562.742887767
4162,14199365.105798258
4222,862403333.8467565
4235,55355.64299291995
4350,0.0
4471,497731.921860765
2,2, 1, 2, 0,12, 0.00,60.00,Friday
11,320674325.02070447
47,128214325.5966522
71,75272725.59665223
346,52941599.9999999
993,122509259.99999996
1017,122509259.99999996
1497,886566358.1016264
1533,11952079.865633984
1557,11952079.865633984
2228,13266335.041148697
2366,4366036.117371123
4114,56114820.568236339
4126,16849111.07444468
4162,14199365.105798258
4222,870248242.1186214
4235,56247.09477191945
4350,0.0
4471,513336.71989538698
2,2, 1, 2, 0,13, 0.00,60.00,Friday
11,321813514.4231231
47,128542816.04388187
71,75601216.0438819
346,52941599.9999999
993,122509259.99999996
1017,122509259.99999996
1497,881434215.1368792
1533,11952079.865633984
1557,11952079.865633984
2228,14081069.323254953
2366,5025573.711258376
4114,56140229.38155125
4126,16943447.91430884
4162,14199365.105798258
4222,864456561.5599868
4235,55301.168922577985
4350,0.0
4471,484838.50551258699
2,2, 1, 2, 0,14, 0.00,60.00,Friday
11,321851565.2812334
47,129257201.77823593
71,76315601.77823594
346,52941599.9999999
993,122509259.99999996
1017,122509259.99999996
1497,868351211.4162723
1533,513194.69713651677
1557,513194.69713651677
2228,13300439.617422985
2366,4672912.6028685769
4114,56257796.46769461
4126,17008587.796207705
4162,14199365.105798258
4222,863165104.1162672
4235,54789.872711587384
4350,0.0
4471,472077.54516845478
2,2, 1, 2, 0,15, 0.00,60.00,Friday
11,319955140.1094255
47,129201099.77774145
71,76259499.77774146
346,52941599.9999999
993,122509259.99999996
1017,122509259.99999996
1497,852350384.9599488
1533,427662.2476137639
1557,427662.2476137639
2228,11820331.626731025
2366,3901060.870678043
4114,55936227.67064069
4126,17075622.30774539
4162,14199365.105798258
4222,848021661.8416568
4235,53116.87104897893
4350,0.0
4471,435104.16326351198
2,2, 1, 2, 0,16, 0.00,60.00,Friday
11,314682593.1474925
47,126952418.72062803
71,74010818.72062806
346,52941599.9999999
993,122509259.99999996
1017,122509259.99999996
1497,807645008.9044764
1533,427662.2476137639
1557,427662.2476137639
2228,10310251.333350955
2366,3497428.553391223
4114,54478645.01965878
4126,17497971.852229179
4162,14199365.105798258
4222,803719918.1034715
4235,51511.64724722232
4350,0.0
4471,380506.42660764508
2,2, 1, 2, 0,17, 0.00,60.00,Friday
11,318375759.3321918
47,130213027.86901878
71,77271427.86901881
346,52941599.9999999
993,122509259.99999996
1017,122509259.99999996
1497,845077173.4421182
1533,29024875.168857416
1557,29024875.168857416
2228,10422070.08000998
2366,3917646.8973650296
4114,54795011.191147077
4126,17474935.581275137
4162,14199365.105798258
4222,812134651.3758956
4235,51999.07143219202
4350,0.0
4471,384391.120583819
2,2, 1, 2, 0,18, 0.00,60.00,Friday
11,307844281.9029388
47,123776342.99999996
71,70834742.99999997
346,52941599.9999999
993,118102859.99999997
1017,118102859.99999997
1497,856478502.4054706
1533,29024875.168857416
1557,29024875.168857416
2228,10409945.384352178
2366,3553938.906736219
4114,55104579.19763156
4126,17124513.131505915
4162,14199365.105798258
4222,823899688.329877
4235,51800.37176964199
4350,0.0
4471,398753.94918543766
2,2, 1, 2, 0,19, 0.00,60.00,Friday
11,339192328.77507868
47,143344268.99999986
71,47505068.99999999
346,95839199.99999984
993,135564839.99999989
1017,135564839.99999989
1497,768458174.9222308
1533,28597212.921243654
1557,28597212.921243654
2228,9678105.188301696
2366,3256986.43457252
4114,50084544.84649887
4126,16731925.915248083
4162,14199365.105798258
4222,736603975.5664146
4235,54059.33793723362
4350,0.0
4471,466510.4023411048
2,2, 1, 2, 0,20, 0.00,60.00,Friday
11,390112439.8485285
47,171942668.99999974
71,47505068.99999999
346,124437599.9999998
993,164163239.99999974
1017,164163239.99999974
1497,651526236.3899825
1533,0.0
1557,0.0
2228,7613499.144825358
2366,2720269.066985515
4114,45882546.59905829
4126,16572710.951800349
4162,14199365.105798258
4222,648805967.322997
4235,53279.09848793854
4350,0.0
4471,457206.0061574088
2,2, 1, 2, 0,21, 0.00,60.00,Friday
11,401682413.0906571
47,180270629.9999997
71,41533829.999999988
346,138736799.9999998
993,169616699.99999974
1017,169616699.99999974
1497,615653219.3853873
1533,0.0
1557,0.0
2228,7519239.425362272
2366,2610355.5556569576
4114,43743057.39459963
4126,16521995.463782933
4162,14199365.105798258
4222,613042863.8297303
4235,55110.33648718389
4350,0.0
4471,477675.93420848497
2,2, 1, 2, 0,22, 0.00,60.00,Friday
11,318987358.0670859
47,143777915.9999998
71,19340315.999999998
346,124437599.9999998
993,132085079.9999998
1017,132085079.9999998
1497,342091760.608844
1533,0.0
1557,0.0
2228,4774595.356884798
2366,2015673.828147826
4114,38349766.71020145
4126,10490501.918585619
4162,14199365.105798258
4222,340076086.78069618
4235,0.0
4350,0.0
4471,0.0
2,2, 1, 2, 0,23, 0.00,60.00,Friday
11,215686912.7677006
47,96788438.99999984
71,5971238.999999999
346,90817199.99999984
993,90768869.99999985
1017,90768869.99999985
1497,62765493.45991334
1533,0.0
1557,0.0
2228,3439736.743317008
2366,1600023.7067185529
4114,24689867.024383874
4126,10490501.918585619
4162,14199365.105798258
4222,61165469.753194797
4235,0.0
4350,0.0
4471,0.0
2,2, 1, 2, 0,24, 0.00,60.00,Friday
11,127636695.09746564
47,52754678.99999992
71,4835078.999999999
346,47919599.99999992
993,47320469.999999929
1017,47320469.999999929
1497,87905332.96593198
1533,0.0
1557,0.0
2228,1638144.2263835218
2366,1321082.1492098533
4114,25923401.87108216
4126,10490501.918585619
4162,14199365.105798258
4222,86584250.81672213
4235,0.0
4350,0.0
4471,0.0
2,3, 1, 3, 0, 1, 0.00,60.00,Saturday
11,76092366.00056379
47,24156278.99999996
71,4835078.999999999
346,19321199.999999968
993,18722069.99999997
1017,18722069.99999997
1497,162777799.3318538
1533,0.0
1557,0.0
2228,2529108.3774272568
2366,1343770.8595069024
4114,30684908.623136566
4126,8458341.339612136
4162,14199365.105798258
4222,161434028.4723469
4235,0.0
4350,0.0
4471,0.0
2,3, 1, 3, 0, 2, 0.00,60.00,Saturday
11,79840723.79358089
47,24156278.99999996
71,4835078.999999999
346,19321199.999999968
993,18722069.99999997
1017,18722069.99999997
1497,242185971.80139978
1533,0.0
1557,0.0
2228,2504361.2868797869
2366,1336136.940571183
4114,34458013.50670116
4126,8458341.339612136
4162,14199365.105798258
4222,240849834.8608286
4235,0.0
4350,0.0
4471,0.0
2,3, 1, 3, 0, 3, 0.00,60.00,Saturday
11,87649650.2482779
47,24156278.99999996
71,4835078.999999999
346,19321199.999999968
993,18722069.99999997
1017,18722069.99999997
1497,340187880.6243638
1533,0.0
1557,0.0
2228,1638189.1452391667
2366,1321002.9141310645
4114,43045945.172711659
4126,14982695.6260485
4162,14199365.105798258
4222,338866877.71023276
4235,89.61523216232885
4350,0.0
4471,87077.31509495588
2,3, 1, 3, 0, 4, 0.00,60.00,Saturday
11,88096367.62268421
47,24156278.99999996
71,4835078.999999999
346,19321199.999999968
993,18722069.99999997
1017,18722069.99999997
1497,373519673.4433162
1533,0.0
1557,0.0
2228,1607648.1444175393
2366,1044807.4928866319
4114,43510636.22066058
4126,14287472.942453273
4162,14199365.105798258
4222,372474865.95042958
4235,307.76810909326727
4350,0.0
4471,99426.48949704593
2,3, 1, 3, 0, 5, 0.00,60.00,Saturday
11,88301603.40524179
47,24156278.99999996
71,4835078.999999999
346,19321199.999999968
993,18722069.99999997
1017,18722069.99999997
1497,397902324.7377512
1533,0.0
1557,0.0
2228,803687.2454377186
2366,1306357.1751055544
4114,44519528.9475131
4126,14287472.942453273
4162,14199365.105798258
4222,396595967.5626456
4235,730.3003862243056
4350,0.0
4471,99307.91190478008
2,3, 1, 3, 0, 6, 0.00,60.00,Saturday
11,145761374.6370051
47,52754678.99999992
71,4835078.999999999
346,47919599.99999992
993,47320469.999999929
1017,47320469.999999929
1497,374216880.8109856
1533,0.0
1557,0.0
2228,1607824.3979942129
2366,1052490.902969912
4114,43952287.56046639
4126,15236715.698420186
4162,14199365.105798258
4222,373164389.9080157
4235,2146.0331129403305
4350,0.0
4471,123967.64543159431
2,3, 1, 3, 0, 7, 0.00,60.00,Saturday
11,246180325.28423447
47,80361638.99999988
71,5971238.999999999
346,74390399.99999988
993,69320069.9999999
1017,69320069.9999999
1497,1625434806.947178
1533,28597212.921243654
1557,28597212.921243654
2228,1622864.6127796206
2366,1320259.6313644709
4114,92839035.43670748
4126,31330154.871084796
4162,14199365.105798258
4222,1595517334.3945699
4235,123890.35645672737
4350,0.0
4471,1912825.8782908542
2,3, 1, 3, 0, 8, 0.00,60.00,Saturday
11,228274583.62796433
47,83903483.77422756
71,9513083.774227683
346,74390399.99999988
993,73192139.99999988
1017,73192139.99999988
1497,1271713356.1390906
1533,28597212.921243654
1557,28597212.921243654
2228,4621753.337477093
2366,2016148.100871217
4114,64930037.716607037
4126,16827020.292770205
4162,14199365.105798258
4222,1241099995.1169756
4235,103600.59180180422
4350,0.0
4471,1523568.2078509599
2,3, 1, 3, 0, 9, 0.00,60.00,Saturday
11,256689618.26795913
47,100941733.84870443
71,26551333.848704578
346,74390399.99999988
993,90883619.99999987
1017,90883619.99999987
1497,1052989932.1520851
1533,285108.16507584266
1557,285108.16507584266
2228,5795545.88124715
2366,2089875.221067841
4114,57957840.65340951
4126,16583612.052692855
4162,14199365.105798258
4222,1050614948.7659414
4235,89548.5762548307
4350,0.0
4471,1021329.3083433216
2,3, 1, 3, 0,10, 0.00,60.00,Saturday
11,293417711.93278166
47,118284384.39804946
71,43893984.39804958
346,74390399.99999988
993,114116039.99999988
1017,114116039.99999988
1497,908922572.0347285
1533,285108.16507584266
1557,285108.16507584266
2228,5998108.748232135
2366,2478307.4107800989
4114,54189964.14832984
4126,16563860.839078956
4162,14199365.105798258
4222,906159156.4588727
4235,72138.94499895329
4350,0.0
4471,757075.6931713965
2,3, 1, 3, 0,11, 0.00,60.00,Saturday
11,295832039.3457871
47,116935797.04504639
71,63994197.045046407
346,52941599.9999999
993,115899659.99999997
1017,115899659.99999997
1497,827685674.9146359
1533,513194.69713651677
1557,513194.69713651677
2228,9677944.309225809
2366,3279210.870532705
4114,52589559.26347424
4126,16652205.25614008
4162,14199365.105798258
4222,823893269.3469666
4235,60449.56279570768
4350,0.0
4471,668629.1652450392
2,3, 1, 3, 0,12, 0.00,60.00,Saturday
11,295118228.1656446
47,116759004.40930753
71,63817404.409307528
346,52941599.9999999
993,115899659.99999997
1017,115899659.99999997
1497,776910301.7972849
1533,11952079.865633984
1557,11952079.865633984
2228,11638883.897501307
2366,3844359.9080592759
4114,50132707.5568783
4126,16933668.846659945
4162,14199365.105798258
4222,761113862.0235915
4235,59225.81183039818
4350,0.0
4471,628746.4901272485
2,3, 1, 3, 0,13, 0.00,60.00,Saturday
11,290603340.9693379
47,113457847.49706328
71,60516247.497063297
346,52941599.9999999
993,114247259.99999997
1017,114247259.99999997
1497,732733311.8933598
1533,11952079.865633984
1557,11952079.865633984
2228,13628477.917481488
2366,4029907.929038574
4114,48680254.39773403
4126,17059668.75963775
4162,14199365.105798258
4222,716751324.0986872
4235,56655.46206041299
4350,0.0
4471,532845.6949987576
2,3, 1, 3, 0,14, 0.00,60.00,Saturday
11,288137350.0786086
47,113157726.31747914
71,60216126.31747915
346,52941599.9999999
993,114247259.99999997
1017,114247259.99999997
1497,666049268.1564953
1533,513194.69713651677
1557,513194.69713651677
2228,13632101.593654165
2366,3935763.210340287
4114,46581595.8430148
4126,17201662.437000365
4162,14199365.105798258
4222,661600310.2490187
4235,54298.024881649384
4350,0.0
4471,464368.2995789275
2,3, 1, 3, 0,15, 0.00,60.00,Saturday
11,282782309.5788518
47,113103084.31321194
71,60161484.313211958
346,52941599.9999999
993,114247259.99999997
1017,114247259.99999997
1497,598997778.3878546
1533,427662.2476137639
1557,427662.2476137639
2228,10730622.52821785
2366,3474864.512637805
4114,44272871.541743617
4126,17645025.51088603
4162,14199365.105798258
4222,595095251.627603
4235,51132.88261272407
4350,0.0
4471,377338.3130658055
2,3, 1, 3, 0,16, 0.00,60.00,Saturday
11,282063257.9609033
47,112875495.06147301
71,59933895.06147303
346,52941599.9999999
993,114247259.99999997
1017,114247259.99999997
1497,572917241.0587232
1533,427662.2476137639
1557,427662.2476137639
2228,10834412.129494835
2366,3221088.647426452
4114,43716158.11747188
4126,18220645.56444972
4162,14199365.105798258
4222,569268490.1636829
4235,50077.25744410205
4350,0.0
4471,339855.39501962918
2,3, 1, 3, 0,17, 0.00,60.00,Saturday
11,289506117.06253507
47,117884942.91447208
71,64943342.91447209
346,52941599.9999999
993,114247259.99999997
1017,114247259.99999997
1497,640139713.0023568
1533,29024875.168857416
1557,29024875.168857416
2228,10932126.018357594
2366,3321012.505130617
4114,46059764.26889643
4126,18577699.894366735
4162,14199365.105798258
4222,607793825.3283687
4235,50011.54631110414
4350,0.0
4471,332012.3144979805
2,3, 1, 3, 0,18, 0.00,60.00,Saturday
11,284687928.6290982
47,111937382.99999996
71,64017782.99999998
346,47919599.99999992
993,113145659.99999997
1017,113145659.99999997
1497,711650301.9799584
1533,28597212.921243654
1557,28597212.921243654
2228,10614465.615188137
2366,3211338.528327758
4114,48568417.41518076
4126,17806870.76119767
4162,14199365.105798258
4222,679841750.530387
4235,51686.895924103446
4350,0.0
4471,370315.70280528909
2,3, 1, 3, 0,19, 0.00,60.00,Saturday
11,309418933.04141846
47,128942549.99999987
71,38125349.999999988
346,90817199.99999984
993,125066699.99999988
1017,125066699.99999988
1497,677982916.4586542
1533,28597212.921243654
1557,28597212.921243654
2228,9938789.645762362
2366,3004778.714180087
4114,44880091.64755483
4126,16534727.628014192
4162,14199365.105798258
4222,646380924.8232304
4235,56105.91536749
4350,0.0
4471,534695.8327339705
2,3, 1, 3, 0,20, 0.00,60.00,Saturday
11,330177306.4768134
47,142745273.9999998
71,23329673.999999994
346,119415599.9999998
993,138176819.9999998
1017,138176819.9999998
1497,561335221.7657098
1533,0.0
1557,0.0
2228,7940329.9067658749
2366,2525912.7722205684
4114,40614356.88466847
4126,14487417.026481724
4162,14199365.105798258
4222,558809308.9934893
4235,61173.86533161912
4350,0.0
4471,639351.8200477709
2,3, 1, 3, 0,21, 0.00,60.00,Saturday
11,356148242.00279036
47,157044473.99999977
71,23329673.999999994
346,133714799.99999979
993,152476019.99999977
1017,152476019.99999977
1497,560075476.403553
1533,0.0