Program Version,EnergyPlus, Version 9.0.1-bb7ca4f0da, YMD=2019.12.17 18:30
1,5,Environment Title[],Latitude[deg],Longitude[deg],Time Zone[],Elevation[m]
2,8,Day of Simulation[],Month[],Day of Month[],DST Indicator[1=yes 0=no],Hour[],StartMinute[],EndMinute[],DayType
3,5,Cumulative Day of Simulation[],Month[],Day of Month[],DST Indicator[1=yes 0=no],DayType  ! When Daily Meters Requested
4,2,Cumulative Days of Simulation[],Month[]  ! When Monthly Meters Requested
5,1,Cumulative Days of Simulation[] ! When Run Period Meters Requested
6,1,Calendar Year of Simulation[] ! When Annual Meters Requested
4210,1,Heating:Electricity [J] !Hourly
4114,1,Fans:Electricity [J] !Hourly
4162,1,ProcessMotors:Fans:Electricity [J] !Hourly
993,1,InteriorEquipment:Electricity [J] !Hourly
11,1,Electricity:Facility [J] !Hourly
47,1,InteriorLights:Electricity [J] !Hourly
4473,1,Pumps:Electricity [J] !Hourly
1533,1,InteriorEquipment:Gas [J] !Hourly
4348,1,Cooling:Electricity [J] !Hourly
2366,1,WaterSystems:Gas [J] !Hourly
1497,1,Gas:Facility [J] !Hourly
2228,1,WaterSystems:Electricity [J] !Hourly
4236,1,Heating:Gas [J] !Hourly
1017,1,Receptacle:InteriorEquipment:Electricity [J] !Hourly
1557,1,Receptacle:InteriorEquipment:Gas [J] !Hourly
71,1,ComplianceLtg:InteriorLights:Electricity [J] !Hourly
346,1,NonComplianceLtg:InteriorLights:Electricity [J] !Hourly
4126,1,General:Fans:Electricity [J] !Hourly
End of Data Dictionary
1,BLUE-CANYON_725845_CZ2010,  39.30,-120.72,  -8.00,1609.00
2,1, 1, 1, 0, 1, 0.00,60.00,Holiday
11,77128378.59931723
47,24156278.99999996
71,4835078.999999999
346,19321199.999999968
993,18722069.99999997
1017,18722069.99999997
1497,119824472.1515443
1533,0.0
1557,0.0
2228,1545601.059771596
2366,1048379.6965385283
4114,32552848.43048689
4126,13762581.285197184
4162,14199365.105798258
4210,2683.541551265056
4236,118776092.4550058
4348,0.0
4473,148896.56750751538
2,1, 1, 1, 0, 2, 0.00,60.00,Holiday
11,78821326.56665507
47,24156278.99999996
71,4835078.999999999
346,19321199.999999968
993,18722069.99999997
1017,18722069.99999997
1497,175411623.94368119
1533,0.0
1557,0.0
2228,1545000.827387787
2366,1310436.3515287906
4114,34244902.96435243
4126,13371364.694980754
4162,14199365.105798258
4210,4156.698578670578
4236,174101187.59215243
4348,0.0
4473,148917.07633623458
2,1, 1, 1, 0, 3, 0.00,60.00,Holiday
11,106263613.62928994
47,24156278.99999996
71,4835078.999999999
346,19321199.999999968
993,18722069.99999997
1017,18722069.99999997
1497,230042073.6222917
1533,0.0
1557,0.0
2228,1543965.8350117086
2366,1048395.5150614432
4114,37109064.7978656
4126,14517850.51453964
4162,14199365.105798258
4210,24583330.605415659
4236,228993678.10723029
4348,0.0
4473,148903.39099702924
2,1, 1, 1, 0, 4, 0.00,60.00,Holiday
11,117644010.30094323
47,24156278.99999996
71,4835078.999999999
346,19321199.999999968
993,18722069.99999997
1017,18722069.99999997
1497,267744680.38494266
1533,0.0
1557,0.0
2228,1034675.1904345449
2366,1303238.66289403
4114,38741741.68867697
4126,14941217.301825783
4162,14199365.105798258
4210,34839928.851187299
4236,266441441.72204865
4348,0.0
4473,149315.5706444693
2,1, 1, 1, 0, 5, 0.00,60.00,Holiday
11,115508738.67083997
47,24156278.99999996
71,4835078.999999999
346,19321199.999999968
993,18722069.99999997
1017,18722069.99999997
1497,299145470.9217529
1533,0.0
1557,0.0
2228,1607734.728093578
2366,1042559.1031653832
4114,40103384.08094902
4126,15153487.603936367
4162,14199365.105798258
4210,30760946.180297596
4236,298102911.81858769
4348,0.0
4473,158324.68149985776
2,1, 1, 1, 0, 6, 0.00,60.00,Holiday
11,190451892.29529397
47,52754678.99999992
71,4835078.999999999
346,47919599.99999992
993,47320469.999999929
1017,47320469.999999929
1497,257484095.1221699
1533,0.0
1557,0.0
2228,1607846.550744188
2366,1240978.5452000532
4114,39372593.71543147
4126,16297556.632476934
4162,14199365.105798258
4210,49229054.06236955
4236,256243116.57696987
4348,0.0
4473,167248.96674884947
2,1, 1, 1, 0, 7, 0.00,60.00,Holiday
11,262064427.4849392
47,74203478.99999988
71,4835078.999999999
346,69368399.9999999
993,68769269.9999999
1017,68769269.9999999
1497,932917869.6081866
1533,28597212.921243654
1557,28597212.921243654
2228,1622841.1579309086
2366,1120186.527107362
4114,68067103.19424296
4126,16623942.164487435
4162,14199365.105798258
4210,49229445.15582926
4236,903200470.1598357
4348,0.0
4473,172288.97693630489
2,1, 1, 1, 0, 8, 0.00,60.00,Holiday
11,250898405.16472534
47,74198174.23240194
71,4829774.232402056
346,69368399.9999999
993,68769269.9999999
1017,68769269.9999999
1497,689343752.5564797
1533,28597212.921243654
1557,28597212.921243654
2228,1739139.746944563
2366,1333021.2310363458
4114,56769112.45114632
4126,16338940.471960662
4162,14199365.105798258
4210,49253371.74845973
4236,659413518.4041996
4348,0.0
4473,169336.9857729732
2,1, 1, 1, 0, 9, 0.00,60.00,Holiday
11,275663448.90783849
47,77829441.4142638
71,8461041.414263918
346,69368399.9999999
993,72641339.99999988
1017,72641339.99999988
1497,1026649571.695291
1533,0.0
1557,0.0
2228,3334674.6967566709
2366,1348397.1817295899
4114,70678159.95657678
4126,33922759.724195349
4162,14199365.105798258
4210,49369525.620639
4236,1025301174.5135615
4348,0.0
4473,1810307.219602335
2,1, 1, 1, 0,10, 0.00,60.00,Holiday
11,255539165.29032628
47,77747322.80483625
71,8378922.804836366
346,69368399.9999999
993,72641339.99999988
1017,72641339.99999988
1497,907709101.3281636
1533,0.0
1557,0.0
2228,2604639.2708019188
2366,1636714.342372514
4114,52314303.461404789
4126,16942519.06972192
4162,14199365.105798258
4210,49345822.26265024
4236,906072386.9857912
4348,0.0
4473,885737.490633177
2,1, 1, 1, 0,11, 0.00,60.00,Holiday
11,262067215.4034596
47,77679631.14638195
71,29760031.14638199
346,47919599.99999992
993,74424959.99999996
1017,74424959.99999996
1497,862026912.3203671
1533,0.0
1557,0.0
2228,7159593.503892913
2366,2130003.1285187008
4114,52949669.905210588
4126,16620321.729668856
4162,14199365.105798258
4210,49333076.56735943
4236,859896909.1918484
4348,0.0
4473,520284.28061482627
2,1, 1, 1, 0,12, 0.00,60.00,Holiday
11,259849304.31392593
47,77133216.18001823
71,29213616.180018277
346,47919599.99999992
993,74424959.99999996
1017,74424959.99999996
1497,835451597.6299281
1533,11438885.168497468
1557,11438885.168497468
2228,6562587.104872136
2366,2398875.0591507309
4114,51905332.635734979
4126,16529086.711671647
4162,14199365.105798258
4210,49336249.521264489
4236,821613837.4022799
4348,0.0
4473,486958.87203618578
2,1, 1, 1, 0,13, 0.00,60.00,Holiday
11,284026093.2017703
47,86121450.02630119
71,38201850.02630122
346,47919599.99999992
993,89913239.99999997
1017,89913239.99999997
1497,743113370.8606985
1533,11438885.168497468
1557,11438885.168497468
2228,8629405.02461859
2366,2641574.1716185368
4114,49603596.74515337
4126,16519577.605455209
4162,14199365.105798258
4210,49328987.84242588
4236,729032911.5205824
4348,0.0
4473,429413.5632714749
2,1, 1, 1, 0,14, 0.00,60.00,Holiday
11,281479954.2334879
47,86051225.6596558
71,38131625.65965582
346,47919599.99999992
993,89913239.99999997
1017,89913239.99999997
1497,683662614.1223129
1533,0.0
1557,0.0
2228,7808677.431363224
2366,2734984.6914898946
4114,47957090.34355693
4126,16519577.605455209
4162,14199365.105798258
4210,49330966.75236033
4236,680927629.430823
4348,0.0
4473,418754.0465517619
2,1, 1, 1, 0,15, 0.00,60.00,Holiday
11,281365826.2199468
47,86732463.34613681
71,38812863.34613683
346,47919599.99999992
993,89913239.99999997
1017,89913239.99999997
1497,664435752.3724985
1533,0.0
1557,0.0
2228,7610855.7929763239
2366,2484902.953951493
4114,47354861.64030392
4126,16519577.605455209
4162,14199365.105798258
4210,49336984.724833939
4236,661950849.418547
4348,0.0
4473,417420.7156959567
2,1, 1, 1, 0,16, 0.00,60.00,Holiday
11,282940047.15500298
47,87425018.23004455
71,39505418.23004456
346,47919599.99999992
993,89913239.99999997
1017,89913239.99999997
1497,680674400.880481
1533,0.0
1557,0.0
2228,7706726.370012212
2366,2487270.7697484868
4114,48131439.59128929
4126,16519577.605455209
4162,14199365.105798258
4210,49343899.85587936
4236,678187130.1107324
4348,0.0
4473,419723.1077777042
2,1, 1, 1, 0,17, 0.00,60.00,Holiday
11,287492650.0427589
47,89547543.9609335
71,41627943.960933517
346,47919599.99999992
993,89913239.99999997
1017,89913239.99999997
1497,732316741.4744117
1533,28597212.921243654
1557,28597212.921243654
2228,9039717.76194125
2366,2531385.0382171396
4114,49225343.625953558
4126,16519577.605455209
4162,14199365.105798258
4210,49346765.33932076
4236,701188143.514951
4348,0.0
4473,420039.3546099311
2,1, 1, 1, 0,18, 0.00,60.00,Holiday
11,260752915.26859433
47,78647111.99999994
71,30727511.99999999
346,47919599.99999992
993,74424959.99999996
1017,74424959.99999996
1497,780491324.2186046
1533,28597212.921243654
1557,28597212.921243654
2228,7610537.23271743
2366,2474364.1816838707
4114,50288100.10187276
4126,16519577.605455209
4162,14199365.105798258
4210,49348396.23897506
4236,749419747.115677
4348,0.0
4473,433809.69502922249
2,1, 1, 1, 0,19, 0.00,60.00,Holiday
11,259030028.4064014
47,106749035.99999982
71,15931835.999999995
346,90817199.99999984
993,101834279.99999984
1017,101834279.99999984
1497,725152917.0392397
1533,28597212.921243654
1557,28597212.921243654
2228,5544459.23063411
2366,2061778.2624969767
4114,44344117.48545618
4126,14487417.026481724
4162,14199365.105798258
4210,68283.27377755085
4236,694493925.855499
4348,0.0
4473,489852.4165337785
2,1, 1, 1, 0,20, 0.00,60.00,Holiday
11,284102250.72151729
47,124250678.9999998
71,4835078.999999999
346,119415599.9999998
993,118816469.99999982
1017,118816469.99999982
1497,274987284.3571735
1533,0.0
1557,0.0
2228,6316701.987834748
2366,2328184.3529420199
4114,34718399.733682777
4126,8458341.339612136
4162,14199365.105798258
4210,0.0
4236,272659100.00423148
4348,0.0
4473,0.0
2,1, 1, 1, 0,21, 0.00,60.00,Holiday
11,309365225.1344755
47,138549878.9999998
71,4835078.999999999
346,133714799.99999979
993,133115669.99999979
1017,133115669.99999979
1497,236166813.8817113
1533,0.0
1557,0.0
2228,4670944.457847684
2366,1706476.126797877
4114,33028731.676628177
4126,8458341.339612136
4162,14199365.105798258
4210,0.0
4236,234460337.75491343
4348,0.0
4473,0.0
2,1, 1, 1, 0,22, 0.00,60.00,Holiday
11,282503925.22653278
47,124250678.9999998
71,4835078.999999999
346,119415599.9999998
993,118816469.99999982
1017,118816469.99999982
1497,257440613.83357815
1533,0.0
1557,0.0
2228,3544273.5828442198
2366,1669024.3717846547
4114,35842655.69810425
4126,10356826.851545962
4162,14199365.105798258
4210,110.23477309582688
4236,255771589.46179346
4348,0.0
4473,49736.71081152892
2,1, 1, 1, 0,23, 0.00,60.00,Holiday
11,217527455.49899424
47,95652278.99999984
71,4835078.999999999
346,90817199.99999984
993,90218069.99999985
1017,90218069.99999985
1497,5297666.859563712
1533,0.0
1557,0.0
2228,2504714.080621454
2366,1332903.190229595
4114,28985991.485189808
4126,14786626.379391553
4162,14199365.105798258
4210,709.8529866471638
4236,3964763.6693341166
4348,0.0
4473,165691.08019657594
2,1, 1, 1, 0,24, 0.00,60.00,Holiday
11,130499959.84850075
47,52754678.99999992
71,4835078.999999999
346,47919599.99999992
993,47320469.999999929
1017,47320469.999999929
1497,27390903.39974338
1533,0.0
1557,0.0
2228,803870.5617277693
2366,1303179.1781258928
4114,29462211.973912475
4126,14470212.127402582
4162,14199365.105798258
4210,1462.4815090971429
4236,26087724.221617484
4348,0.0
4473,157265.83135144285
2,2, 1, 2, 0, 1, 0.00,60.00,Friday
11,77473321.49945598
47,24156278.99999996
71,4835078.999999999
346,19321199.999999968
993,18722069.99999997
1017,18722069.99999997
1497,142662882.47938306
1533,0.0
1557,0.0
2228,1213085.7950448748
2366,1033542.5505622607
4114,33229568.247078446
4126,13632175.755125039
4162,14199365.105798258
4210,3508.268616985746
4236,141629339.9288208
4348,0.0
4473,148810.18871571133
2,2, 1, 2, 0, 2, 0.00,60.00,Friday
11,84826493.97322813
47,24156278.99999996
71,4835078.999999999
346,19321199.999999968
993,18722069.99999997
1017,18722069.99999997
1497,231841169.9487915
1533,0.0
1557,0.0
2228,1165007.071108261
2366,1039344.905401556
4114,36516671.3375847
4126,13671116.939967353
4162,14199365.105798258
4210,4117629.245280477
4236,230801825.04338999
4348,0.0
4473,148837.3192547639
2,2, 1, 2, 0, 3, 0.00,60.00,Friday
11,116365435.23769814
47,24156278.99999996
71,4835078.999999999
346,19321199.999999968
993,18722069.99999997
1017,18722069.99999997
1497,287102950.7028698
1533,0.0
1557,0.0
2228,796485.6844983914
2366,1039262.9424326196
4114,39639490.645429138
4126,14856543.944368555
4162,14199365.105798258
4210,32901906.01187039
4236,286063687.76043716
4348,0.0
4473,149203.895900295
2,2, 1, 2, 0, 4, 0.00,60.00,Friday
11,122554335.84659267
47,24156278.99999996
71,4835078.999999999
346,19321199.999999968
993,18722069.99999997
1017,18722069.99999997
1497,320355873.2325996
1533,0.0
1557,0.0
2228,1578372.3530211256
2366,1058095.3419909916
4114,40931257.65224388
4126,15025890.659283013
4162,14199365.105798258
4210,37016587.58297657
4236,319297777.89060857
4348,0.0
4473,149769.2583511401
2,2, 1, 2, 0, 5, 0.00,60.00,Friday
11,129354501.50145552
47,24156278.99999996
71,4835078.999999999
346,19321199.999999968
993,18722069.99999997
1017,18722069.99999997
1497,339285244.60604569
1533,0.0
1557,0.0
2228,789182.1422447162
2366,1267484.942356392
4114,42339790.11819237
4126,15661566.44356963
4162,14199365.105798258
4210,43188599.745817188
4236,338017759.6636893
4348,0.0
4473,158580.49520132275
2,2, 1, 2, 0, 6, 0.00,60.00,Friday
11,192827136.9068824
47,53890838.99999992
71,5971238.999999999
346,47919599.99999992
993,47871269.999999929
1017,47871269.999999929
1497,288496212.63477018
1533,0.0
1557,0.0
2228,789243.0177036021
2366,1041124.6289192772
4114,40753229.32269022
4126,16297551.568536463
4162,14199365.105798258
4210,49355299.19039135
4236,287455088.00585088
4348,0.0
4473,167256.3760972831
2,2, 1, 2, 0, 7, 0.00,60.00,Friday
11,289598192.5065955
47,80361638.99999988
71,5971238.999999999
346,74390399.99999988
993,69320069.9999999
1017,69320069.9999999
1497,1428922241.0016208
1533,28597212.921243654
1557,28597212.921243654
2228,789092.7039593789
2366,1038626.5244917738
4114,87771051.13105701
4126,35010710.13983193
4162,14199365.105798258
4210,49457587.0821688
4236,1399286401.5558854
4348,0.0
4473,1898752.5894105044
2,2, 1, 2, 0, 8, 0.00,60.00,Friday
11,290690417.95833089
47,95789692.40281274
71,21399292.40281287
346,74390399.99999988
993,83139479.99999988
1017,83139479.99999988
1497,1065235465.9013653
1533,28882321.086319496
1557,28882321.086319496
2228,3510526.522156391
2366,1997519.5433600916
4114,57889392.295175019
4126,16912818.698241075
4162,14199365.105798258
4210,49444807.7140334
4236,1034355625.2716858
4348,0.0
4473,916519.024153346
2,2, 1, 2, 0, 9, 0.00,60.00,Friday
11,343957158.03459009
47,122723662.68950267
71,48333262.689502809
346,74390399.99999988
993,112981499.99999987
1017,112981499.99999987
1497,856507399.7580328
1533,285108.16507584266
1557,285108.16507584266
2228,5620064.556442581
2366,2512446.3762739195
4114,52589734.55376233
4126,16597224.468132303
4162,14199365.105798258
4210,49440760.1894214
4236,853709845.216683
4348,0.0
4473,601436.0454612036
2,2, 1, 2, 0,10, 0.00,60.00,Friday
11,401874103.9559041
47,149390811.4394415
71,75000411.43944158
346,74390399.99999988
993,143958059.99999995
1017,143958059.99999995
1497,772433949.1843495
1533,285108.16507584266
1557,285108.16507584266
2228,6848364.6162677989
2366,3037388.0713380139
4114,51735656.859999518
4126,16563861.25485761
4162,14199365.105798258
4210,49426866.254232499
4236,769111452.9479356
4348,0.0
4473,514344.7859629478
2,2, 1, 2, 0,11, 0.00,60.00,Friday
11,363403896.4128718
47,128572564.46595635
71,75630964.46595636
346,52941599.9999999
993,122509259.99999996
1017,122509259.99999996
1497,798747720.2731232
1533,513194.69713651677
1557,513194.69713651677
2228,9161538.979287958
2366,3622075.037657822
4114,53232883.00396823
4126,16606798.092985582
4162,14199365.105798258
4210,49429159.74146384
4236,794612450.5383288
4348,0.0
4473,498490.2221955123
2,2, 1, 2, 0,12, 0.00,60.00,Friday
11,367588688.1796194
47,128214325.5966522
71,75272725.59665223
346,52941599.9999999
993,122509259.99999996
1017,122509259.99999996
1497,818454178.3944967
1533,11952079.865633984
1557,11952079.865633984
2228,13266276.985268746
2366,4365862.656526345
4114,53649167.75417018
4126,16849676.724895099
4162,14199365.105798258
4210,49436455.91844023
4236,802136235.8723364
4348,0.0
4473,513201.9250882027
2,2, 1, 2, 0,13, 0.00,60.00,Friday
11,368706034.5718318
47,128542816.04388187
71,75601216.0438819
346,52941599.9999999
993,122509259.99999996
1017,122509259.99999996
1497,813143588.948401
1533,11952079.865633984
1557,11952079.865633984
2228,14081133.454976073
2366,5025762.442216881
4114,53654177.308240819
4126,16943852.724805036
4162,14199365.105798258
4210,49433913.113757099
4236,796165746.6405501
4348,0.0
4473,484734.65097608047
2,2, 1, 2, 0,14, 0.00,60.00,Friday
11,368718896.0507426
47,129257201.77823593
71,76315601.77823594
346,52941599.9999999
993,122509259.99999996
1017,122509259.99999996
1497,799856367.3732758
1533,513194.69713651677
1557,513194.69713651677
2228,13300374.770605095
2366,4672719.326756664
4114,53748540.42755631
4126,17008979.447595896
4162,14199365.105798258
4210,49431500.94795868
4236,794670453.3493825
4348,0.0
4473,472018.12638673358
2,2, 1, 2, 0,15, 0.00,60.00,Friday
11,366866708.7382855
47,129201099.77774145
71,76259499.77774146
346,52941599.9999999
993,122509259.99999996
1017,122509259.99999996
1497,783626285.6112168
1533,427662.2476137639
1557,427662.2476137639
2228,11820331.072925568
2366,3901060.64709738
4114,53451911.62558177
4126,17076500.925545716
4162,14199365.105798258
4210,49449155.74905281
4236,779297562.7165055
4348,0.0
4473,434950.5129839487
2,2, 1, 2, 0,16, 0.00,60.00,Friday
11,361817473.56076768
47,126952418.72062803
71,74010818.72062806
346,52941599.9999999
993,122509259.99999996
1017,122509259.99999996
1497,738584362.418288
1533,427662.2476137639
1557,427662.2476137639
2228,10310250.717199162
2366,3497585.0753303545
4114,52205634.725850019
4126,17499718.257027918
4162,14199365.105798258
4210,49459598.676262658
4236,734659115.095344
4348,0.0
4473,380310.72082794536
2,2, 1, 2, 0,17, 0.00,60.00,Friday
11,365427237.6243117
47,130213027.86901878
71,77271427.86901881
346,52941599.9999999
993,122509259.99999996
1017,122509259.99999996
1497,775950759.688997
1533,29024875.168857416
1557,29024875.168857416
2228,10422122.197527633
2366,3917501.9949212775
4114,52458322.215488668
4126,17476241.3429868
4162,14199365.105798258
4210,49440269.12430725
4236,743008382.5252184
4348,0.0
4473,384236.21796951678
2,2, 1, 2, 0,18, 0.00,60.00,Friday
11,354776960.4898582
47,123776342.99999996
71,70834742.99999997
346,52941599.9999999
993,118102859.99999997
1017,118102859.99999997
1497,787320215.132539
1533,29024875.168857416
1557,29024875.168857416
2228,10409911.92092728
2366,3553982.915101787
4114,52664498.544387478
4126,17125889.810357229
4162,14199365.105798258
4210,49424777.46085836
4236,754741357.0485797
4348,0.0
4473,398569.5636851937
2,2, 1, 2, 0,19, 0.00,60.00,Friday
11,386449173.29464676
47,143344268.99999986
71,47505068.99999999
346,95839199.99999984
993,135564839.99999989
1017,135564839.99999989
1497,699063367.3719828
1533,28597212.921243654
1557,28597212.921243654
2228,9678105.392604653
2366,3257255.6445345429
4114,47970343.85112654
4126,16732005.790293748
4162,14199365.105798258
4210,49425123.123279098
4236,667208898.8062046
4348,0.0
4473,466491.92763674297
2,2, 1, 2, 0,20, 0.00,60.00,Friday
11,437675480.1889384
47,171942668.99999974
71,47505068.99999999
346,124437599.9999998
993,164163239.99999974
1017,164163239.99999974
1497,581940829.6256623
1533,0.0
1557,0.0
2228,7613499.200174577
2366,2720018.805276956
4114,44066168.8004479
4126,16572776.624278997
4162,14199365.105798258
4210,49432708.6827815
4236,579220810.8203853
4348,0.0
4473,457194.50553480876
2,2, 1, 2, 0,21, 0.00,60.00,Friday
11,449397424.7042401
47,180270629.9999997
71,41533829.999999988
346,138736799.9999998
993,169616699.99999974
1017,169616699.99999974
1497,545705273.683611
1533,0.0
1557,0.0
2228,7519239.50657779
2366,2610606.0125183907
4114,42073860.9327946
4126,16522014.305489893
4162,14199365.105798258
4210,49439342.24105908
4236,543094667.6710928
4348,0.0
4473,477652.0238090212
2,2, 1, 2, 0,22, 0.00,60.00,Friday
11,366694976.8187974
47,143777915.9999998
71,19340315.999999998
346,124437599.9999998
993,132085079.9999998
1017,132085079.9999998
1497,271608451.9119821
1533,0.0
1557,0.0
2228,4774595.341880576
2366,2015673.0724834386
4114,36614926.53006919
4126,10490501.918585619
4162,14199365.105798258
4210,49442458.946848008
4236,269592778.8394987
4348,0.0
4473,0.0
2,2, 1, 2, 0,23, 0.00,60.00,Friday
11,265188154.17949576
47,96788438.99999984
71,5971238.999999999
346,90817199.99999984
993,90768869.99999985
1017,90768869.99999985
1497,1599810.7332501065
1533,0.0
1557,0.0
2228,3439736.4489488175
2366,1599810.7332501065
4114,24689867.024383874
4126,10490501.918585619
4162,14199365.105798258
4210,49501241.706163328
4236,0.0
4348,0.0
4473,0.0
2,2, 1, 2, 0,24, 0.00,60.00,Friday
11,177003924.09045453
47,52754678.99999992
71,4835078.999999999
346,47919599.99999992
993,47320469.999999929
1017,47320469.999999929
1497,25184769.44189152
1533,0.0
1557,0.0
2228,1638144.1299008937
2366,1321082.1934144009
4114,25745444.40266666
4126,10490501.918585619
4162,14199365.105798258
4210,49545186.55788704
4236,23863687.248477125
4348,0.0
4473,0.0
2,3, 1, 3, 0, 1, 0.00,60.00,Saturday
11,74721075.66224161
47,24156278.99999996
71,4835078.999999999
346,19321199.999999968
993,18722069.99999997
1017,18722069.99999997
1497,151815572.67605783
1533,0.0
1557,0.0
2228,2529108.292789845
2366,1343771.015521873
4114,29313618.369451818
4126,8458341.339612136
4162,14199365.105798258
4210,0.0
4236,150471801.66053594
4348,0.0
4473,0.0
2,3, 1, 3, 0, 2, 0.00,60.00,Saturday
11,78256676.59681
47,24156278.99999996
71,4835078.999999999
346,19321199.999999968
993,18722069.99999997
1017,18722069.99999997
1497,232297632.6147643
1533,0.0
1557,0.0
2228,2504361.34544671
2366,1336136.6417024076
4114,32873966.251363338
4126,8458341.339612136
4162,14199365.105798258
4210,0.0
4236,230961495.97306187
4348,0.0
4473,0.0
2,3, 1, 3, 0, 3, 0.00,60.00,Saturday
11,82357026.64182371
47,24156278.99999996
71,4835078.999999999
346,19321199.999999968
993,18722069.99999997
1017,18722069.99999997
1497,279278368.568614
1533,0.0
1557,0.0
2228,1638189.028205399
2366,1321003.0929547777
4114,37778214.59256768
4126,11306069.607512873
4162,14199365.105798258
4210,90.1607236679678
4236,277957365.47565928
4348,0.0
4473,62183.86032701113
2,3, 1, 3, 0, 4, 0.00,60.00,Saturday
11,84455037.75298222
47,24156278.99999996
71,4835078.999999999
346,19321199.999999968
993,18722069.99999997
1017,18722069.99999997
1497,305997510.61447837
1533,0.0
1557,0.0
2228,1607647.7731389772
2366,1044935.3843147938
4114,39869307.8424662
4126,12255312.363479786
4162,14199365.105798258
4210,301.6246898730281
4236,304952575.2301636
4348,0.0
4473,99431.51268722848
2,3, 1, 3, 0, 5, 0.00,60.00,Saturday
11,110352743.58988196
47,24156278.99999996
71,4835078.999999999
346,19321199.999999968
993,18722069.99999997
1017,18722069.99999997
1497,328473191.8280165
1533,0.0
1557,0.0
2228,803687.0412387422
2366,1306357.3178760494
4114,41761994.40003429
4126,13271392.652966528
4162,14199365.105798258
4210,24809406.388280564
4236,327166834.5101405
4348,0.0
4473,99306.76032842272
2,3, 1, 3, 0, 6, 0.00,60.00,Saturday
11,193831398.41352488
47,52754678.99999992
71,4835078.999999999
346,47919599.99999992
993,47320469.999999929
1017,47320469.999999929
1497,305777183.0735871
1533,0.0
1557,0.0
2228,1607823.9944018103
2366,1052490.516395177
4114,42388602.689471017
4126,15236715.698420186
4162,14199365.105798258
4210,49635854.404363479
4236,304724692.55719199
4348,0.0
4473,123968.32528866001
2,3, 1, 3, 0, 7, 0.00,60.00,Saturday
11,290097791.61309429
47,80361638.99999988
71,5971238.999999999
346,74390399.99999988
993,69320069.9999999
1017,69320069.9999999
1497,1520123048.13813
1533,28597212.921243654
1557,28597212.921243654
2228,1622665.6149849343
2366,1320235.1808104346
4114,87057833.1401677
4126,31142149.487696686
4162,14199365.105798258
4210,49824148.24245235
4236,1490205600.0360759
4348,0.0
4473,1911435.6154895218
2,3, 1, 3, 0, 8, 0.00,60.00,Saturday
11,274768660.57570257
47,83903483.77422756
71,9513083.774227683
346,74390399.99999988
993,73192139.99999988
1017,73192139.99999988
1497,1198860485.0822669
1533,28597212.921243654
1557,28597212.921243654
2228,4621753.368264695
2366,2016104.1400533063
4114,61673434.118666227
4126,16833230.56324463
4162,14199365.105798258
4210,49832370.290476959
4236,1168247168.02097
4348,0.0
4473,1545479.0240672853
2,3, 1, 3, 0, 9, 0.00,60.00,Saturday
11,303822507.14389178
47,100941733.84870443
71,26551333.848704578
346,74390399.99999988
993,90883619.99999987
1017,90883619.99999987
1497,981411296.7241995
1533,285108.16507584266
1557,285108.16507584266
2228,5795545.77200078
2366,2089875.29546741
4114,55414274.3447831
4126,16580825.253159518
4162,14199365.105798258
4210,49768055.821647379
4236,979036313.2636564
4348,0.0
4473,1019277.3567561532
2,3, 1, 3, 0,10, 0.00,60.00,Saturday
11,340823636.1347358
47,118284384.39804946
71,43893984.39804958
346,74390399.99999988
993,114116039.99999988
1017,114116039.99999988
1497,836893408.3693423
1533,285108.16507584266
1557,285108.16507584266
2228,5998109.108726091
2366,2478307.3513836127
4114,51932855.8229225
4126,16563860.839078956
4162,14199365.105798258
4210,49735818.90441423
4236,834129992.8528829
4348,0.0
4473,756427.900623579
2,3, 1, 3, 0,11, 0.00,60.00,Saturday
11,343429206.74605688
47,116935797.04504639
71,63994197.045046407
346,52941599.9999999
993,115899659.99999997
1017,115899659.99999997
1497,755730596.9317715
1533,513194.69713651677
1557,513194.69713651677
2228,9677944.261225667
2366,3279189.0238361626
4114,50456418.75759985
4126,16652443.266137166
4162,14199365.105798258
4210,49790843.20676678
4236,751938213.2107989
4348,0.0
4473,668543.475418271
2,3, 1, 3, 0,12, 0.00,60.00,Saturday
11,342949529.45089337
47,116759004.40930753
71,63817404.409307528
346,52941599.9999999
993,115899659.99999997
1017,115899659.99999997
1497,705147092.4578922
1533,11952079.865633984
1557,11952079.865633984
2228,11638884.489581477
2366,3844359.9085196
4114,48192815.67837493
4126,16934160.789779135
4162,14199365.105798258
4210,49830532.90850615
4236,689350652.6837386
4348,0.0
4473,628631.9651234037
2,3, 1, 3, 0,13, 0.00,60.00,Saturday
11,338579433.6903521
47,113457847.49706328
71,60516247.497063297
346,52941599.9999999
993,114247259.99999997
1017,114247259.99999997
1497,660975199.2134988
1533,11952079.865633984
1557,11952079.865633984
2228,13628590.83427599
2366,4029932.986416433
4114,46830840.41802208
4126,17059892.60706173
4162,14199365.105798258
4210,49882118.57504051
4236,644993186.3614485
4348,0.0
4473,532776.3659504871
2,3, 1, 3, 0,14, 0.00,60.00,Saturday
11,336314862.7493666
47,113157726.31747914
71,60216126.31747915
346,52941599.9999999
993,114247259.99999997
1017,114247259.99999997
1497,593904305.6329143
1533,513194.69713651677
1557,513194.69713651677
2228,13631986.003029207
2366,3935763.271523624
4114,44958854.67868314
4126,17202893.493117628
4162,14199365.105798258
4210,49854954.41961489
4236,589455347.6642542
4348,0.0
4473,464081.33056043917
2,3, 1, 3, 0,15, 0.00,60.00,Saturday
11,331339991.21312877
47,113103084.31321194
71,60161484.313211958
346,52941599.9999999
993,114247259.99999997
1017,114247259.99999997
1497,526683529.96077039
1533,427662.2476137639
1557,427662.2476137639
2228,10730623.11387686
2366,3474835.077288569
4114,43055938.075775299
4126,17648250.511439656
4162,14199365.105798258
4210,49826112.58097106
4236,522781032.635868
4348,0.0
4473,376973.12929375286
2,3, 1, 3, 0,16, 0.00,60.00,Saturday
11,330741776.3833273
47,112875495.06147301
71,59933895.06147303
346,52941599.9999999
993,114247259.99999997
1017,114247259.99999997
1497,499046345.58677396
1533,427662.2476137639
1557,427662.2476137639
2228,10834554.80131675
2366,3221117.4883685598
4114,42628897.48581942
4126,18221371.102253468
4162,14199365.105798258
4210,49814912.81176832
4236,495397565.8507916
4348,0.0
4473,340656.22295001448
2,3, 1, 3, 0,17, 0.00,60.00,Saturday
11,337879538.41453406
47,117884942.91447208
71,64943342.91447209
346,52941599.9999999
993,114247259.99999997
1017,114247259.99999997
1497,567067498.1460612
1533,29024875.168857416
1557,29024875.168857416
2228,10932127.63537541
2366,3320983.7351603296
4114,44705965.091505918
4126,18559875.77121005
4162,14199365.105798258
4210,49776880.69707797
4236,534721639.24204346
4348,0.0
4473,332362.0761028216
2,3, 1, 3, 0,18, 0.00,60.00,Saturday
11,332527653.09803536
47,111937382.99999996
71,64017782.99999998
346,47919599.99999992
993,113145659.99999997
1017,113145659.99999997
1497,638633487.0960877
1533,28597212.921243654
1557,28597212.921243654
2228,10614467.279662183
2366,3211366.4835294329
4114,46760650.59142926
4126,17746399.76024839
4162,14199365.105798258
4210,49698726.946505557
4236,606824907.6913147
4348,0.0
4473,370765.28043852697
2,3, 1, 3, 0,19, 0.00,60.00,Saturday
11,357285558.05224338
47,128942549.99999987
71,38125349.999999988
346,90817199.99999984
993,125066699.99999988
1017,125066699.99999988
1497,603954916.6809652
1533,28597212.921243654
1557,28597212.921243654
2228,9938790.891815179
2366,3004778.785848507
4114,43196139.82836967
4126,16534775.366864739
4162,14199365.105798258
4210,49606703.4420011
4236,572352924.9738729
4348,0.0
4473,534673.8900577508
2,3, 1, 3, 0,20, 0.00,60.00,Saturday
11,328605270.01226136
47,142745273.9999998
71,23329673.999999994
346,119415599.9999998
993,138176819.9999998
1017,138176819.9999998
1497,548297482.7517414
1533,0.0
1557,0.0
2228,7940204.170608349
2366,2525912.695341756
4114,39042468.84664701
4126,14487417.026481724
4162,14199365.105798258
4210,61170.56535257993
4236,545771570.0563996
4348,0.0
4473,639332.4296537316
2,3, 1, 3, 0,21, 0.00,60.00,Saturday
11,354637222.89253029
47,157044473.99999977
71,23329673.999999994
346,133714799.99999979
993,152476019.99999977