Program Version,EnergyPlus, Version 9.0.1-bb7ca4f0da, YMD=2019.12.17 17:46
1,5,Environment Title[],Latitude[deg],Longitude[deg],Time Zone[],Elevation[m]
2,8,Day of Simulation[],Month[],Day of Month[],DST Indicator[1=yes 0=no],Hour[],StartMinute[],EndMinute[],DayType
3,5,Cumulative Day of Simulation[],Month[],Day of Month[],DST Indicator[1=yes 0=no],DayType  ! When Daily Meters Requested
4,2,Cumulative Days of Simulation[],Month[]  ! When Monthly Meters Requested
5,1,Cumulative Days of Simulation[] ! When Run Period Meters Requested
6,1,Calendar Year of Simulation[] ! When Annual Meters Requested
1017,1,Receptacle:InteriorEquipment:Electricity [J] !Hourly
4348,1,Cooling:Electricity [J] !Hourly
47,1,InteriorLights:Electricity [J] !Hourly
2366,1,WaterSystems:Gas [J] !Hourly
4210,1,Heating:Electricity [J] !Hourly
4162,1,ProcessMotors:Fans:Electricity [J] !Hourly
11,1,Electricity:Facility [J] !Hourly
993,1,InteriorEquipment:Electricity [J] !Hourly
4114,1,Fans:Electricity [J] !Hourly
4473,1,Pumps:Electricity [J] !Hourly
2228,1,WaterSystems:Electricity [J] !Hourly
4236,1,Heating:Gas [J] !Hourly
1497,1,Gas:Facility [J] !Hourly
1533,1,InteriorEquipment:Gas [J] !Hourly
1557,1,Receptacle:InteriorEquipment:Gas [J] !Hourly
71,1,ComplianceLtg:InteriorLights:Electricity [J] !Hourly
346,1,NonComplianceLtg:InteriorLights:Electricity [J] !Hourly
4126,1,General:Fans:Electricity [J] !Hourly
End of Data Dictionary
1,RED-BLUFF_725910_CZ2010,  40.15,-122.25,  -8.00, 106.00
2,1, 1, 1, 0, 1, 0.00,60.00,Holiday
11,66342206.05644014
47,24156278.99999996
71,4835078.999999999
346,19321199.999999968
993,18722069.99999997
1017,18722069.99999997
1497,1043373.7641917823
1533,0.0
1557,0.0
2228,806150.6110298017
2366,1043373.7641917823
4114,22657706.445410395
4126,8458341.339612136
4162,14199365.105798256
4210,0.0
4236,0.0
4348,0.0
4473,0.0
2,1, 1, 1, 0, 2, 0.00,60.00,Holiday
11,67191962.36110473
47,24156278.99999996
71,4835078.999999999
346,19321199.999999968
993,18722069.99999997
1017,18722069.99999997
1497,2033376.6044931033
1533,0.0
1557,0.0
2228,1612109.0417793003
2366,1043226.6406790096
4114,22701504.31932547
4126,8458341.339612136
4162,14199365.105798256
4210,0.0
4236,990149.9638140937
4348,0.0
4473,0.0
2,1, 1, 1, 0, 3, 0.00,60.00,Holiday
11,67365456.33549565
47,24156278.99999996
71,4835078.999999999
346,19321199.999999968
993,18722069.99999997
1017,18722069.99999997
1497,6223338.963983202
1533,0.0
1557,0.0
2228,1611798.0452334183
2366,1303935.4725553774
4114,22875309.290262276
4126,8458341.339612136
4162,14199365.105798256
4210,0.0
4236,4919403.491427826
4348,0.0
4473,0.0
2,1, 1, 1, 0, 4, 0.00,60.00,Holiday
11,67534754.67294686
47,24156278.99999996
71,4835078.999999999
346,19321199.999999968
993,18722069.99999997
1017,18722069.99999997
1497,10082936.918152536
1533,0.0
1557,0.0
2228,1598599.050333737
2366,1037771.4175027502
4114,23057806.622613167
4126,8458341.339612136
4162,14199365.105798256
4210,0.0
4236,9045165.500649786
4348,0.0
4473,0.0
2,1, 1, 1, 0, 5, 0.00,60.00,Holiday
11,67034399.12263216
47,24156278.99999996
71,4835078.999999999
346,19321199.999999968
993,18722069.99999997
1017,18722069.99999997
1497,16840352.431413909
1533,0.0
1557,0.0
2228,799349.7110088144
2366,1038019.9009783367
4114,23356700.411623397
4126,8458341.339612136
4162,14199365.105798256
4210,0.0
4236,15802332.530435572
4348,0.0
4473,0.0
2,1, 1, 1, 0, 6, 0.00,60.00,Holiday
11,138743742.63671664
47,52754678.99999992
71,4835078.999999999
346,47919599.99999992
993,47320469.999999929
1017,47320469.999999929
1497,10048033.475670506
1533,0.0
1557,0.0
2228,1598674.5851668586
2366,1305979.761006583
4114,25076559.472501708
4126,10490501.918585619
4162,14199365.105798256
4210,11993359.579048126
4236,8742053.71466392
4348,0.0
4473,0.0
2,1, 1, 1, 0, 7, 0.00,60.00,Holiday
11,203190991.28070093
47,74203478.99999988
71,4835078.999999999
346,69368399.9999999
993,68769269.9999999
1017,68769269.9999999
1497,476167214.44833138
1533,28597212.921243654
1557,28597212.921243654
2228,1272457.593062992
2366,1043248.7512246434
4114,46797386.91320896
4126,12868536.995081747
4162,14199365.105798256
4210,12099088.387031619
4236,446526752.77586308
4348,0.0
4473,49309.38739756112
2,1, 1, 1, 0, 8, 0.00,60.00,Holiday
11,196531974.0215117
47,74194640.6233617
71,4826240.62336182
346,69368399.9999999
993,68769269.9999999
1017,68769269.9999999
1497,280119912.65763667
1533,28597212.921243654
1557,28597212.921243654
2228,2002113.2546004854
2366,1324016.1143087049
4114,39409358.022066298
4126,14229716.180029924
4162,14199365.105798256
4210,12057114.01105683
4236,250198683.62208427
4348,0.0
4473,99478.11042647185
2,1, 1, 1, 0, 9, 0.00,60.00,Holiday
11,211203922.46464268
47,77568906.11835276
71,8200506.118352879
346,69368399.9999999
993,72641339.99999988
1017,72641339.99999988
1497,540893323.0685774
1533,0.0
1557,0.0
2228,2524209.6462365009
2366,1337618.9569648724
4114,45917798.77203706
4126,24021013.68833458
4162,14199365.105798256
4210,11754054.073687807
4236,539555704.1116126
4348,0.0
4473,797613.8543286852
2,1, 1, 1, 0,10, 0.00,60.00,Holiday
11,199863809.52227835
47,77226858.74107929
71,7858458.741079415
346,69368399.9999999
993,72641339.99999988
1017,72641339.99999988
1497,389130070.8766134
1533,0.0
1557,0.0
2228,2568710.688844825
2366,1351633.3888694316
4114,35652496.981531459
4126,16549715.343804665
4162,14199365.105798256
4210,11493163.870484688
4236,387778437.48774406
4348,0.0
4473,281239.24033814205
2,1, 1, 1, 0,11, 0.00,60.00,Holiday
11,202887154.2628287
47,75778576.76311159
71,27858976.76311164
346,47919599.99999992
993,74424959.99999996
1017,74424959.99999996
1497,302513810.1323378
1533,0.0
1557,0.0
2228,5933916.262931124
2366,2187623.060404469
4114,35032022.99401882
4126,16519577.605455209
4162,14199365.105798256
4210,11499739.275980369
4236,300326187.0719333
4348,0.0
4473,217938.96678690089
2,1, 1, 1, 0,12, 0.00,60.00,Holiday
11,201429807.72037254
47,75866246.57962027
71,27946646.579620337
346,47919599.99999992
993,74424959.99999996
1017,74424959.99999996
1497,244035651.84185524
1533,11438885.168497468
1557,11438885.168497468
2228,6624932.295207812
2366,2247814.775668962
4114,33545593.753669375
4126,16519577.605455209
4162,14199365.105798256
4210,10760092.940615036
4236,230348951.8976888
4348,0.0
4473,207982.15126015654
2,1, 1, 1, 0,13, 0.00,60.00,Holiday
11,224744143.65125913
47,85906814.08418158
71,37987214.08418159
346,47919599.99999992
993,89913239.99999997
1017,89913239.99999997
1497,129882973.91892746
1533,11438885.168497468
1557,11438885.168497468
2228,7034875.24092436
2366,2454826.4715235314
4114,32224736.356481479
4126,16519577.605455209
4162,14199365.105798256
4210,9465426.768165335
4236,115989262.27890647
4348,0.0
4473,199051.2015065035
2,1, 1, 1, 0,14, 0.00,60.00,Holiday
11,223101655.037268
47,85909190.02506958
71,37989590.0250696
346,47919599.99999992
993,89913239.99999997
1017,89913239.99999997
1497,62941331.233810339
1533,0.0
1557,0.0
2228,7294153.275101243
2366,2473891.6511658264
4114,31255089.009604157
4126,16519577.605455209
4162,14199365.105798256
4210,8515049.814813067
4236,60467439.5826445
4348,16762.77308081511
4473,198170.13959923338
2,1, 1, 1, 0,15, 0.00,60.00,Holiday
11,223854634.57850475
47,85894077.0814126
71,37974477.08141263
346,47919599.99999992
993,89913239.99999997
1017,89913239.99999997
1497,63057453.02637029
1533,0.0
1557,0.0
2228,7300517.043006967
2366,2363855.818062072
4114,31190408.30152221
4126,16519577.605455209
4162,14199365.105798256
4210,8713720.918736812
4236,60693597.208308208
4348,644486.5635982067
4473,198184.6702280288
2,1, 1, 1, 0,16, 0.00,60.00,Holiday
11,224474929.74556915
47,86021627.3525972
71,38102027.35259722
346,47919599.99999992
993,89913239.99999997
1017,89913239.99999997
1497,71333200.0105647
1533,0.0
1557,0.0
2228,7379885.483074592
2366,2186893.8053875409
4114,31237658.18153774
4126,16525450.611559842
4162,14199365.105798256
4210,9033880.044393104
4236,69146306.20517716
4348,690382.8611661577
4473,198255.8228004133
2,1, 1, 1, 0,17, 0.00,60.00,Holiday
11,227389571.07354564
47,88893471.76673353
71,40973871.76673354
346,47919599.99999992
993,89913239.99999997
1017,89913239.99999997
1497,116061743.40059355
1533,28597212.921243654
1557,28597212.921243654
2228,7545592.660546713
2366,2457674.3746936356
4114,31255218.320860499
4126,16543543.446922536
4162,14199365.105798256
4210,9504215.218321855
4236,85006856.10465625
4348,79234.21811894037
4473,198598.88896420826
2,1, 1, 1, 0,18, 0.00,60.00,Holiday
11,202135342.44189338
47,78647111.99999994
71,30727511.99999999
346,47919599.99999992
993,74424959.99999996
1017,74424959.99999996
1497,185155423.95725555
1533,28597212.921243654
1557,28597212.921243654
2228,6256531.031154583
2366,2414242.7827240985
4114,31856628.11634392
4126,16519577.605455209
4162,14199365.105798256
4210,10747554.272722986
4236,154143968.2532878
4348,0.0
4473,202557.0216720253
2,1, 1, 1, 0,19, 0.00,60.00,Holiday
11,243703098.097337
47,106749035.99999982
71,15931835.999999995
346,90817199.99999984
993,101834279.99999984
1017,101834279.99999984
1497,248871237.09354867
1533,28597212.921243654
1557,28597212.921243654
2228,5699289.364621851
2366,1914974.389180588
4114,29164668.080631399
4126,14487417.026481724
4162,14199365.105798256
4210,37468.47515076956
4236,218359049.78312446
4348,0.0
4473,218356.1769332423
2,1, 1, 1, 0,20, 0.00,60.00,Holiday
11,271039960.40925469
47,124250678.9999998
71,4835078.999999999
346,119415599.9999998
993,118816469.99999982
1017,118816469.99999982
1497,5386125.5699144839
1533,0.0
1557,0.0
2228,5161188.395769187
2366,1906495.4794455004
4114,22811623.01348577
4126,8458341.339612136
4162,14199365.105798256
4210,0.0
4236,3479630.090468984
4348,0.0
4473,0.0
2,1, 1, 1, 0,21, 0.00,60.00,Holiday
11,298770528.05365779
47,138549878.9999998
71,4835078.999999999
346,133714799.99999979
993,133115669.99999979
1017,133115669.99999979
1497,5948189.060175864
1533,0.0
1557,0.0
2228,4267884.669194052
2366,1892721.1548662689
4114,22837094.384464027
4126,8458341.339612136
4162,14199365.105798256
4210,0.0
4236,4055467.905309595
4348,0.0
4473,0.0
2,1, 1, 1, 0,22, 0.00,60.00,Holiday
11,269851458.38754859
47,124250678.9999998
71,4835078.999999999
346,119415599.9999998
993,118816469.99999982
1017,118816469.99999982
1497,15874658.800702993
1533,0.0
1557,0.0
2228,3488093.201514719
2366,1439708.0822707888
4114,23296216.18603413
4126,8458341.339612136
4162,14199365.105798256
4210,0.0
4236,14434950.718432203
4348,0.0
4473,0.0
2,1, 1, 1, 0,23, 0.00,60.00,Holiday
11,210181745.1673836
47,95652278.99999984
71,4835078.999999999
346,90817199.99999984
993,90218069.99999985
1017,90218069.99999985
1497,1261785.274097343
1533,0.0
1557,0.0
2228,1653689.7219734737
2366,1261785.274097343
4114,22657706.445410395
4126,8458341.339612136
4162,14199365.105798256
4210,0.0
4236,0.0
4348,0.0
4473,0.0
2,1, 1, 1, 0,24, 0.00,60.00,Holiday
11,124331734.8235454
47,52754678.99999992
71,4835078.999999999
346,47919599.99999992
993,47320469.999999929
1017,47320469.999999929
1497,1281745.347475003
1533,0.0
1557,0.0
2228,1598879.3781350447
2366,1281745.347475003
4114,22657706.445410395
4126,8458341.339612136
4162,14199365.105798256
4210,0.0
4236,0.0
4348,0.0
4473,0.0
2,2, 1, 2, 0, 1, 0.00,60.00,Friday
11,66327127.20290098
47,24156278.99999996
71,4835078.999999999
346,19321199.999999968
993,18722069.99999997
1017,18722069.99999997
1497,1152858.0825274352
1533,0.0
1557,0.0
2228,786326.2457454586
2366,1045575.0117688822
4114,22662451.957155575
4126,8458341.339612136
4162,14199365.105798256
4210,0.0
4236,107283.07075855295
4348,0.0
4473,0.0
2,2, 1, 2, 0, 2, 0.00,60.00,Friday
11,66703944.50333272
47,24156278.99999996
71,4835078.999999999
346,19321199.999999968
993,18722069.99999997
1017,18722069.99999997
1497,9513439.599614645
1533,0.0
1557,0.0
2228,792841.6335352833
2366,1034647.3133504952
4114,23032753.869797499
4126,8458341.339612136
4162,14199365.105798256
4210,0.0
4236,8478792.28626415
4348,0.0
4473,0.0
2,2, 1, 2, 0, 3, 0.00,60.00,Friday
11,68321821.38942749
47,24156278.99999996
71,4835078.999999999
346,19321199.999999968
993,18722069.99999997
1017,18722069.99999997
1497,28165441.410931887
1533,0.0
1557,0.0
2228,1585681.1016988555
2366,1034820.6930127475
4114,23857791.28772869
4126,8458341.339612136
4162,14199365.105798256
4210,0.0
4236,27130620.71791914
4348,0.0
4473,0.0
2,2, 1, 2, 0, 4, 0.00,60.00,Friday
11,68687033.14886847
47,24156278.99999996
71,4835078.999999999
346,19321199.999999968
993,18722069.99999997
1017,18722069.99999997
1497,54489813.61063701
1533,0.0
1557,0.0
2228,786249.127151048
2366,1029800.3929068333
4114,25022435.021717479
4126,8458341.339612136
4162,14199365.105798256
4210,0.0
4236,53460013.21773017
4348,0.0
4473,0.0
2,2, 1, 2, 0, 5, 0.00,60.00,Friday
11,69250346.87927282
47,24156278.99999996
71,4835078.999999999
346,19321199.999999968
993,18722069.99999997
1017,18722069.99999997
1497,67223558.30686948
1533,0.0
1557,0.0
2228,786304.8159600052
2366,1029831.4896772525
4114,25585693.06331286
4126,8458341.339612136
4162,14199365.105798256
4210,0.0
4236,66193726.81719223
4348,0.0
4473,0.0
2,2, 1, 2, 0, 6, 0.00,60.00,Friday
11,166943488.18812386
47,53890838.99999992
71,5971238.999999999
346,47919599.99999992
993,47871269.999999929
1017,47871269.999999929
1497,45314645.13699874
1533,0.0
1557,0.0
2228,786150.6459573039
2366,1036653.0857872855
4114,26648441.78695399
4126,10490501.918585619
4162,14199365.105798256
4210,37746786.755212608
4236,44277992.05121146
4348,0.0
4473,0.0
2,2, 1, 2, 0, 7, 0.00,60.00,Friday
11,241513640.61026047
47,80361638.99999988
71,5971238.999999999
346,74390399.99999988
993,69320069.9999999
1017,69320069.9999999
1497,1037600533.4429891
1533,28597212.921243654
1557,28597212.921243654
2228,786215.1159822699
2366,1034633.6137708697
4114,63825303.07173461
4126,22653162.861734086
4162,14199365.105798256
4210,26365388.971588956
4236,1007968686.9079747
4348,0.0
4473,855024.4509548378
2,2, 1, 2, 0, 8, 0.00,60.00,Friday
11,254806395.810295
47,95882826.03426014
71,21492426.03426027
346,74390399.99999988
993,83139479.99999988
1017,83139479.99999988
1497,684627131.3971279
1533,28882321.086319496
1557,28882321.086319496
2228,3457281.0226732876
2366,1969736.290848839
4114,45667498.86187798
4126,16527170.366801382
4162,14199365.105798256
4210,26341421.572135386
4236,653775074.0199595
4348,0.0
4473,317888.31934827598
2,2, 1, 2, 0, 9, 0.00,60.00,Friday
11,308228250.55696609
47,122949848.02265464
71,48559448.02265477
346,74390399.99999988
993,112981499.99999987
1017,112981499.99999987
1497,487939439.54025056
1533,285108.16507584266
1557,285108.16507584266
2228,4660717.969143292
2366,2364815.2046603
4114,41061319.468319039
4126,16519577.605455209
4162,14199365.105798256
4210,26325861.43457659
4236,485289516.17051449
4348,0.0
4473,249003.66227265789
2,2, 1, 2, 0,10, 0.00,60.00,Friday
11,365751678.2673371
47,150601735.28338138
71,76211335.28338142
346,74390399.99999988
993,143958059.99999995
1017,143958059.99999995
1497,418918499.1292328
1533,285108.16507584266
1557,285108.16507584266
2228,6130007.235228065
2366,2699253.4418471527
4114,40610694.29866023
4126,16572224.503295282
4162,14199365.105798256
4210,24225899.831235589
4236,415934137.5223098
4348,0.0
4473,225281.61883189667
2,2, 1, 2, 0,11, 0.00,60.00,Friday
11,326385852.7494165
47,129670381.21988318
71,76728781.2198832
346,52941599.9999999
993,122509259.99999996
1017,122509259.99999996
1497,438704452.68322876
1533,513194.69713651677
1557,513194.69713651677
2228,8826202.009304325
2366,3467310.5956328876
4114,41884395.1725919
4126,16637875.783624966
4162,14199365.105798256
4210,23274137.56688337
4236,434723947.39045938
4348,0.0
4473,221476.78075372664
2,2, 1, 2, 0,12, 0.00,60.00,Friday
11,327376681.5291063
47,129117112.44542097
71,76175512.44542098
346,52941599.9999999
993,122509259.99999996
1017,122509259.99999996
1497,434639049.75807109
1533,11952079.865633984
1557,11952079.865633984
2228,11413687.322521195
2366,3986767.819323048
4114,41576113.929775308
4126,16872710.687493028
4162,14199365.105798256
4210,22540635.65744055
4236,418700202.07311406
4348,0.0
4473,219872.1739484302
2,2, 1, 2, 0,13, 0.00,60.00,Friday
11,323374097.6669557
47,128268170.35276652
71,75326570.35276653
346,52941599.9999999
993,122509259.99999996
1017,122509259.99999996
1497,390545603.4748615
1533,11952079.865633984
1557,11952079.865633984
2228,12436959.326573592
2366,4464326.043976946
4114,40352628.84327694
4126,16938516.3369341
4162,14199365.105798256
4210,19592962.365834394
4236,374129197.56525066
4348,0.0
4473,214116.77850441775
2,2, 1, 2, 0,14, 0.00,60.00,Friday
11,321300558.5123638
47,129472246.97287455
71,76530646.97287458
346,52941599.9999999
993,122509259.99999996
1017,122509259.99999996
1497,347339507.5360278
1533,513194.69713651677
1557,513194.69713651677
2228,12924420.315993812
2366,4472027.302841332
4114,39844251.90788455
4126,17048882.745451217
4162,14199365.105798256
4210,16341705.63070285
4236,342354285.53604999
4348,0.0
4473,208673.6849081462
2,2, 1, 2, 0,15, 0.00,60.00,Friday
11,314182791.69319298
47,128760701.85788082
71,75819101.85788083
346,52941599.9999999
993,122509259.99999996
1017,122509259.99999996
1497,307285350.236075
1533,427662.2476137639
1557,427662.2476137639
2228,10111142.467931923
2366,3570843.9634683437
4114,39158886.13406046
4126,17266298.661637129
4162,14199365.105798256
4210,13438313.488649477
4236,303286844.0249929
4348,0.0
4473,204487.74467031306
2,2, 1, 2, 0,16, 0.00,60.00,Friday
11,305085106.87511417
47,124993244.29378936
71,72051644.29378937
346,52941599.9999999
993,122509259.99999996
1017,122509259.99999996
1497,222245766.53506936
1533,427662.2476137639
1557,427662.2476137639
2228,9055651.433585542
2366,3209029.1918283237
4114,36727330.52363981
4126,17827668.335990378
4162,14199365.105798256
4210,11597812.121420216
4236,218609075.09562729
4348,0.0
4473,201808.5026793277
2,2, 1, 2, 0,17, 0.00,60.00,Friday
11,308466514.97108086
47,129668360.36549469
71,76726760.3654947
346,52941599.9999999
993,122509259.99999996
1017,122509259.99999996
1497,233579090.22578938
1533,29024875.168857416
1557,29024875.168857416
2228,9007299.305775574
2366,3642057.4677870299
4114,36260530.9546006
4126,17863953.556140718
4162,14199365.105798256
4210,10820065.982171217
4236,200912157.5891449
4348,0.0
4473,200998.363038957
2,2, 1, 2, 0,18, 0.00,60.00,Friday
11,300636844.48960378
47,123776342.99999996
71,70834742.99999997
346,52941599.9999999
993,118102859.99999997
1017,118102859.99999997
1497,264220921.20410619
1533,29024875.168857416
1557,29024875.168857416
2228,9562875.366967049
2366,3127121.515283113
4114,36838458.0424981
4126,17390700.579762054
4162,14199365.105798256
4210,12154470.298522529
4236,232068924.51996566
4348,0.0
4473,201837.78161623569
2,2, 1, 2, 0,19, 0.00,60.00,Friday
11,333558275.84277579
47,143344268.99999986
71,47505068.99999999
346,95839199.99999984
993,135564839.99999989
1017,135564839.99999989
1497,212252483.29249583
1533,28597212.921243654
1557,28597212.921243654
2228,9143891.223831097
2366,2983514.2361545248
4114,32997524.31130774
4126,16734419.859816697
4162,14199365.105798256
4210,12302718.131731967
4236,180671756.13509763
4348,0.0
4473,205033.17590520625
2,2, 1, 2, 0,20, 0.00,60.00,Friday
11,395582974.00162646
47,171942668.99999974
71,47505068.99999999
346,124437599.9999998
993,164163239.99999974
1017,164163239.99999974
1497,197103133.02359248
1533,0.0
1557,0.0
2228,6315167.710969609
2366,2484196.7562610979
4114,31882318.900249315
4126,16589844.581407028
4162,14199365.105798256
4210,21064476.532046386
4236,194618936.26733137
4348,0.0
4473,215101.85836144544
2,2, 1, 2, 0,21, 0.00,60.00,Friday
11,415388143.9077505
47,180270629.9999997
71,41533829.999999988
346,138736799.9999998
993,169616699.99999974
1017,169616699.99999974
1497,219201647.47597073
1533,0.0
1557,0.0
2228,7168492.046328142
2366,2516844.525287733
4114,31919769.026205459
4126,16525281.776911706
4162,14199365.105798256
4210,26188133.528904484
4236,216684802.95068298
4348,0.0
4473,224419.30631275656
2,2, 1, 2, 0,22, 0.00,60.00,Friday
11,345743967.7564138
47,143777915.9999998
71,19340315.999999998
346,124437599.9999998
993,132085079.9999998
1017,132085079.9999998
1497,54138629.231254119
1533,0.0
1557,0.0
2228,4657287.475177638
2366,1972721.8065635868
4114,26997353.70237918
4126,10490501.918585619
4162,14199365.105798256
4210,38226330.57885736
4236,52165907.42469053
4348,0.0
4473,0.0
2,2, 1, 2, 0,23, 0.00,60.00,Friday
11,263082749.08375708
47,96788438.99999984
71,5971238.999999999
346,90817199.99999984
993,90768869.99999985
1017,90768869.99999985
1497,1347792.175726189
1533,0.0
1557,0.0
2228,2546697.838807322
2366,1347792.175726189
4114,24689867.024383874
4126,10490501.918585619
4162,14199365.105798256
4210,48288875.22056617
4236,0.0
4348,0.0
4473,0.0
2,2, 1, 2, 0,24, 0.00,60.00,Friday
11,175938842.068803
47,52754678.99999992
71,4835078.999999999
346,47919599.99999992
993,47320469.999999929
1017,47320469.999999929
1497,1313734.0270933547
1533,0.0
1557,0.0
2228,1626003.8610861938
2366,1313734.0270933547
4114,24689867.024383874
4126,10490501.918585619
4162,14199365.105798256
4210,49547822.183333028
4236,0.0
4348,0.0
4473,0.0
2,3, 1, 3, 0, 1, 0.00,60.00,Saturday
11,68480206.02345982
47,24156278.99999996
71,4835078.999999999
346,19321199.999999968
993,18722069.99999997
1017,18722069.99999997
1497,11328680.702097577
1533,0.0
1557,0.0
2228,2502042.280660536
2366,1333831.7647574649
4114,23099814.742799336
4126,8458341.339612136
4162,14199365.105798256
4210,0.0
4236,9994848.93734011
4348,0.0
4473,0.0
2,3, 1, 3, 0, 2, 0.00,60.00,Saturday
11,69461682.02020876
47,24156278.99999996
71,4835078.999999999
346,19321199.999999968
993,18722069.99999997
1017,18722069.99999997
1497,52693003.855271447
1533,0.0
1557,0.0
2228,1653522.163408563
2366,1326988.4130281308
4114,24929810.856800248
4126,8458341.339612136
4162,14199365.105798256
4210,0.0
4236,51366015.442243319
4348,0.0
4473,0.0
2,3, 1, 3, 0, 3, 0.00,60.00,Saturday
11,71848751.28169213
47,24156278.99999996
71,4835078.999999999
346,19321199.999999968
993,18722069.99999997
1017,18722069.99999997
1497,107104552.05946402
1533,0.0
1557,0.0
2228,1625972.0836598199
2366,1150651.645859458
4114,27344430.198032366
4126,8458341.339612136
4162,14199365.105798256
4210,0.0
4236,105953900.41360459
4348,0.0
4473,0.0
2,3, 1, 3, 0, 4, 0.00,60.00,Saturday
11,74294440.98877359
47,24156278.99999996
71,4835078.999999999
346,19321199.999999968
993,18722069.99999997
1017,18722069.99999997
1497,163060925.20112769
1533,0.0
1557,0.0
2228,1598744.651226281
2366,1201183.0962894783
4114,29817347.33754737
4126,8458341.339612136
4162,14199365.105798256
4210,0.0
4236,161859742.1048382
4348,0.0
4473,0.0
2,3, 1, 3, 0, 5, 0.00,60.00,Saturday
11,76444168.09920499
47,24156278.99999996
71,4835078.999999999
346,19321199.999999968
993,18722069.99999997
1017,18722069.99999997
1497,211500251.68772353
1533,0.0
1557,0.0
2228,1598701.8434288176
2366,1040106.9515800278
4114,31967117.255776224
4126,8458341.339612136
4162,14199365.105798256
4210,0.0
4236,210460144.73614348
4348,0.0
4473,0.0
2,3, 1, 3, 0, 6, 0.00,60.00,Saturday
11,183389072.08406986
47,52754678.99999992
71,4835078.999999999
346,47919599.99999992
993,47320469.999999929
1017,47320469.999999929
1497,190742716.04671825
1533,0.0
1557,0.0
2228,799460.1395028015
2366,1309020.701490428
4114,33069202.114778237
4126,10490501.918585619
4162,14199365.105798256
4210,49445260.829788889
4236,189433695.3452278
4348,0.0
4473,0.0
2,3, 1, 3, 0, 7, 0.00,60.00,Saturday
11,274990653.1705211
47,80361638.99999988
71,5971238.999999999
346,74390399.99999988
993,69320069.9999999
1017,69320069.9999999
1497,1348038996.7932578
1533,28597212.921243654
1557,28597212.921243654
2228,1612196.0761636559
2366,1050328.1319377297
4114,73043618.73976983
4126,21180217.319662256
4162,14199365.105798256
4210,49566432.73269795
4236,1318391455.7400766
4348,0.0
4473,1086696.6218898725
2,3, 1, 3, 0, 8, 0.00,60.00,Saturday
11,267364551.509619
47,83973083.0142079
71,9582683.01420803
346,74390399.99999988
993,73192139.99999988
1017,73192139.99999988
1497,1007551291.4866819
1533,28597212.921243654
1557,28597212.921243654
2228,4120741.5685753438
2366,1986023.7223580755
4114,55813586.12286463
4126,16519577.605455209
4162,14199365.105798256
4210,49549163.439904909
4236,976968054.8430804
4348,0.0
4473,715837.364066265
2,3, 1, 3, 0, 9, 0.00,60.00,Saturday
11,295546410.94782868
47,100918684.4939912
71,26528284.493991328
346,74390399.99999988
993,90883619.99999987
1017,90883619.99999987
1497,767112984.4071343
1533,285108.16507584266
1557,285108.16507584266
2228,5124926.231599376
2366,2050350.03031858
4114,48518867.42736529
4126,16519577.605455209
4162,14199365.105798256
4210,49545873.08978807
4236,764777526.21174
4348,0.0
4473,554439.7050848564
2,3, 1, 3, 0,10, 0.00,60.00,Saturday
11,331194627.06050708
47,118042330.87895648
71,43651930.8789566
346,74390399.99999988
993,114116039.99999988
1017,114116039.99999988
1497,597211878.6543958
1533,285108.16507584266
1557,285108.16507584266
2228,5056048.589480492
2366,2237028.7544592798
4114,44051477.76183488
4126,16563857.937855557
4162,14199365.105798256
4210,49520878.48396484
4236,594689741.7348607
4348,0.0
4473,407851.34627057219
2,3, 1, 3, 0,11, 0.00,60.00,Saturday
11,333840707.2358618
47,116843311.32871887
71,63901711.328718889
346,52941599.9999999
993,115899659.99999997
1017,115899659.99999997
1497,516936225.8842615
1533,513194.69713651677
1557,513194.69713651677
2228,8898798.678958297
2366,2836245.0525413949
4114,42218256.60858303
4126,16684313.73512246
4162,14199365.105798256
4210,49665254.27360827
4236,513586786.13458356
4348,0.0
4473,315426.34599352229
2,3, 1, 3, 0,12, 0.00,60.00,Saturday
11,328848940.73632767
47,116821272.14340557
71,63879672.143405597
346,52941599.9999999
993,115899659.99999997
1017,115899659.99999997
1497,428155756.7910317
1533,11952079.865633984
1557,11952079.865633984
2228,10673208.358466162
2366,3612543.050425771
4114,39517297.8960882
4126,16949602.64529648
4162,14199365.105798256
4210,45681472.78063601
4236,412591133.874972
4348,0.0
4473,256029.5577317644
2,3, 1, 3, 0,13, 0.00,60.00,Saturday
11,301330335.5673095
47,113435877.11637947
71,60494277.11637949
346,52941599.9999999
993,114247259.99999997
1017,114247259.99999997
1497,329005389.87028017
1533,11952079.865633984
1557,11952079.865633984
2228,12245252.208295949
2366,3707959.312408384
4114,37038301.3106987
4126,17016008.785631934
4162,14199365.105798256
4210,24141265.76711952
4236,313345350.6922378
4348,0.0
4473,222379.1648158498
2,3, 1, 3, 0,14, 0.00,60.00,Saturday
11,292772693.5126966
47,113378598.57241327
71,60436998.572413299
346,52941599.9999999
993,114247259.99999997
1017,114247259.99999997
1497,233511041.61274535
1533,513194.69713651677
1557,513194.69713651677
2228,12314366.856882636
2366,3722934.141047685
4114,35391494.94455129
4126,17372531.03227537
4162,14199365.105798256
4210,17048496.700109278
4236,229274912.77456118
4348,184317.74410101167
4473,208158.69463926983
2,3, 1, 3, 0,15, 0.00,60.00,Saturday
11,285616858.56429967
47,113244358.33565715
71,60302758.335657168
346,52941599.9999999
993,114247259.99999997
1017,114247259.99999997
1497,166685652.13926999
1533,427662.2476137639
1557,427662.2476137639
2228,9973645.149726812
2366,3069468.0686653277
4114,34599589.24523756
4126,17945375.03551332
4162,14199365.105798256
4210,12653921.769746945
4236,163188521.82299087
4348,696282.3348296556
4473,201801.72910156984
2,3, 1, 3, 0,16, 0.00,60.00,Saturday
11,285110858.3649496
47,113453292.60621296
71,60511692.60621297
346,52941599.9999999
993,114247259.99999997
1017,114247259.99999997
1497,140314378.83555103
1533,427662.2476137639
1557,427662.2476137639
2228,9844111.989183814
2366,3023631.7566872255
4114,34458913.39017239
4126,18317273.19241649
4162,14199365.105798256
4210,11944592.724630362
4236,136863084.83125005
4348,962583.435968357
4473,200104.21878175729
2,3, 1, 3, 0,17, 0.00,60.00,Saturday
11,289219012.8440767
47,117757756.93878509
71,64816156.938785109
346,52941599.9999999
993,114247259.99999997
1017,114247259.99999997
1497,179993256.92304159
1533,29024875.168857416
1557,29024875.168857416
2228,9718965.608275963
2366,3021201.1014225685
4114,34814912.16333548
4126,18480463.9002882
4162,14199365.105798256
4210,12289207.333393109
4236,147947180.6527616
4348,190626.70210423583
4473,200284.09818281898
2,3, 1, 3, 0,18, 0.00,60.00,Saturday
11,287903909.5926816
47,111937382.99999996
71,64017782.99999998
346,47919599.99999992
993,113145659.99999997
1017,113145659.99999997
1497,243262516.2969114
1533,28597212.921243654
1557,28597212.921243654
2228,9092995.734401197
2366,2943841.9498027225
4114,35440640.3510174
4126,17874330.346878698
4162,14199365.105798256
4210,18082152.938591415
4236,211721461.42586503
4348,0.0
4473,205077.56867174715
2,3, 1, 3, 0,19, 0.00,60.00,Saturday
11,325453086.8149037
47,128942549.99999987
71,38125349.999999988
346,90817199.99999984
993,125066699.99999988
1017,125066699.99999988
1497,279633148.0766579
1533,28597212.921243654
1557,28597212.921243654
2228,8682811.737734609
2366,2907363.239487906
4114,33225468.061514435
4126,16531332.217984148
4162,14199365.105798256
4210,29310714.505848037
4236,248128571.91592635
4348,0.0
4473,224842.5098068267
2,3, 1, 3, 0,20, 0.00,60.00,Saturday
11,318770686.84257826
47,142745273.9999998
71,23329673.999999994
346,119415599.9999998
993,138176819.9999998
1017,138176819.9999998
1497,249447356.9676328
1533,0.0
1557,0.0
2228,7462667.510515075
2366,2460618.0144921538
4114,30104951.371028089
4126,14487417.026481724
4162,14199365.105798256
4210,38973.52668839674
4236,246986738.95314069
4348,0.0
4473,242000.4343469768
2,3, 1, 3, 0,21, 0.00,60.00,Saturday
11,345271102.37322667
47,157044473.99999977
71,23329673.999999994
346,133714799.99999979
993,152476019.99999977
1017,152476019.99999977
1497,255232792.65185083
1533,0.0
1557,0.0
2228,5933708.871477082
2366,2068077.645325087
4114,29523102.696973664
4126,14487417.026481724
4162,14199365.105798256
4210,43177.90787387203
4236,253164715.00652576
4348,0.0
4473,250618.89690239004
2,3, 1, 3, 0,22, 0.00,60.00,Saturday
11,286641064.28185197
47,127949597.9999998
71,8533997.999999999
346,119415599.9999998