Program Version,EnergyPlus, Version 9.0.1-bb7ca4f0da, YMD=2019.12.18 16:59
1,5,Environment Title[],Latitude[deg],Longitude[deg],Time Zone[],Elevation[m]
2,8,Day of Simulation[],Month[],Day of Month[],DST Indicator[1=yes 0=no],Hour[],StartMinute[],EndMinute[],DayType
3,5,Cumulative Day of Simulation[],Month[],Day of Month[],DST Indicator[1=yes 0=no],DayType  ! When Daily Meters Requested
4,2,Cumulative Days of Simulation[],Month[]  ! When Monthly Meters Requested
5,1,Cumulative Days of Simulation[] ! When Run Period Meters Requested
6,1,Calendar Year of Simulation[] ! When Annual Meters Requested
4114,1,Fans:Electricity [J] !Hourly
4126,1,General:Fans:Electricity [J] !Hourly
1017,1,Receptacle:InteriorEquipment:Electricity [J] !Hourly
11,1,Electricity:Facility [J] !Hourly
47,1,InteriorLights:Electricity [J] !Hourly
4222,1,Heating:Gas [J] !Hourly
993,1,InteriorEquipment:Electricity [J] !Hourly
4471,1,Pumps:Electricity [J] !Hourly
4235,1,Heating:Electricity [J] !Hourly
4350,1,Cooling:Electricity [J] !Hourly
2228,1,WaterSystems:Electricity [J] !Hourly
2366,1,WaterSystems:Gas [J] !Hourly
1497,1,Gas:Facility [J] !Hourly
1533,1,InteriorEquipment:Gas [J] !Hourly
1557,1,Receptacle:InteriorEquipment:Gas [J] !Hourly
71,1,ComplianceLtg:InteriorLights:Electricity [J] !Hourly
346,1,NonComplianceLtg:InteriorLights:Electricity [J] !Hourly
4162,1,ProcessMotors:Fans:Electricity [J] !Hourly
End of Data Dictionary
1,RED-BLUFF_725910_CZ2010,  40.15,-122.25,  -8.00, 106.00
2,1, 1, 1, 0, 1, 0.00,60.00,Holiday
11,66342206.05644014
47,24156278.99999996
71,4835078.999999999
346,19321199.999999968
993,18722069.99999997
1017,18722069.99999997
1497,1043373.7641917823
1533,0.0
1557,0.0
2228,806150.6110298017
2366,1043373.7641917823
4114,22657706.445410395
4126,8458341.339612136
4162,14199365.105798256
4222,0.0
4235,0.0
4350,0.0
4471,0.0
2,1, 1, 1, 0, 2, 0.00,60.00,Holiday
11,67151167.88640915
47,24156278.99999996
71,4835078.999999999
346,19321199.999999968
993,18722069.99999997
1017,18722069.99999997
1497,1113332.6705168158
1533,0.0
1557,0.0
2228,1612109.0417793003
2366,1043226.6406790096
4114,22660709.844629904
4126,8458341.339612136
4162,14199365.105798256
4222,70106.0298378062
4235,0.0
4350,0.0
4471,0.0
2,1, 1, 1, 0, 3, 0.00,60.00,Holiday
11,67285932.62991119
47,24156278.99999996
71,4835078.999999999
346,19321199.999999968
993,18722069.99999997
1017,18722069.99999997
1497,4706016.543047556
1533,0.0
1557,0.0
2228,1611798.0452334183
2366,1303935.4725553774
4114,22795785.584677809
4126,8458341.339612136
4162,14199365.105798256
4222,3402081.070492179
4235,0.0
4350,0.0
4471,0.0
2,1, 1, 1, 0, 4, 0.00,60.00,Holiday
11,67400548.09587077
47,24156278.99999996
71,4835078.999999999
346,19321199.999999968
993,18722069.99999997
1017,18722069.99999997
1497,7625565.344036974
1533,0.0
1557,0.0
2228,1598599.050333737
2366,1037771.4175027502
4114,22923600.045537086
4126,8458341.339612136
4162,14199365.105798256
4222,6587793.926534224
4235,0.0
4350,0.0
4471,0.0
2,1, 1, 1, 0, 5, 0.00,60.00,Holiday
11,66793231.07929112
47,24156278.99999996
71,4835078.999999999
346,19321199.999999968
993,18722069.99999997
1017,18722069.99999997
1497,12487381.751286116
1533,0.0
1557,0.0
2228,799349.7110088144
2366,1038019.9009783367
4114,23115532.368282357
4126,8458341.339612136
4162,14199365.105798256
4222,11449361.850307782
4235,0.0
4350,0.0
4471,0.0
2,1, 1, 1, 0, 6, 0.00,60.00,Holiday
11,126617129.82061401
47,52754678.99999992
71,4835078.999999999
346,47919599.99999992
993,47320469.999999929
1017,47320469.999999929
1497,68730793.48512256
1533,0.0
1557,0.0
2228,1598674.5851668586
2366,1305979.761006583
4114,24943306.2354472
4126,10490501.918585619
4162,14199365.105798256
4222,67424813.72411599
4235,0.0
4350,0.0
4471,0.0
2,1, 1, 1, 0, 7, 0.00,60.00,Holiday
11,188398222.63011796
47,74203478.99999988
71,4835078.999999999
346,69368399.9999999
993,68769269.9999999
1017,68769269.9999999
1497,511809250.69389358
1533,28597212.921243654
1557,28597212.921243654
2228,1272112.8445226453
2366,1043302.9154332226
4114,44103546.39147891
4126,12261040.86853525
4162,14199365.105798256
4222,482168734.8572167
4235,38.03354217360405
4350,0.0
4471,49776.36057437246
2,1, 1, 1, 0, 8, 0.00,60.00,Holiday
11,183145983.16912864
47,74194640.6233617
71,4826240.62336182
346,69368399.9999999
993,68769269.9999999
1017,68769269.9999999
1497,321480093.24807426
1533,28597212.921243654
1557,28597212.921243654
2228,2002509.0511963494
2366,1323918.401017359
4114,38079807.50636555
4126,14254810.756311786
4162,14199365.105798256
4222,291558961.92581316
4235,252.59931979312578
4350,0.0
4471,99503.38888532485
2,1, 1, 1, 0, 9, 0.00,60.00,Holiday
11,198399011.93415825
47,77568906.11835276
71,8200506.118352879
346,69368399.9999999
993,72641339.99999988
1017,72641339.99999988
1497,584195241.0373303
1533,0.0
1557,0.0
2228,2524209.304245827
2366,1337618.2706520484
4114,44813887.92057583
4126,23927968.65185651
4162,14199365.105798256
4222,582857622.7666782
4235,74877.41331138095
4350,0.0
4471,775791.177672504
2,1, 1, 1, 0,10, 0.00,60.00,Holiday
11,187652690.34358109
47,77226858.74107929
71,7858458.741079415
346,69368399.9999999
993,72641339.99999988
1017,72641339.99999988
1497,436028583.8529687
1533,0.0
1557,0.0
2228,2568710.227508311
2366,1351633.6997856089
4114,34884646.38434714
4126,16546041.807490409
4162,14199365.105798256
4222,434676950.15318307
4235,52518.60022275668
4350,0.0
4471,278616.3904236746
2,1, 1, 1, 0,11, 0.00,60.00,Holiday
11,190716097.73892195
47,75778576.76311159
71,27858976.76311164
346,47919599.99999992
993,74424959.99999996
1017,74424959.99999996
1497,351269674.1570324
1533,0.0
1557,0.0
2228,5933916.438990256
2366,2187925.3164706055
4114,34325121.067169878
4126,16519577.605455209
4162,14199365.105798256
4222,349081748.8405618
4235,36132.39991917403
4350,0.0
4471,217391.06973116898
2,1, 1, 1, 0,12, 0.00,60.00,Holiday
11,190210215.90584598
47,75866246.57962027
71,27946646.579620337
346,47919599.99999992
993,74424959.99999996
1017,74424959.99999996
1497,296347514.79344168
1533,11438885.168497468
1557,11438885.168497468
2228,6625165.243229417
2366,2247507.7642190784
4114,33056539.74983408
4126,16519577.605455209
4162,14199365.105798256
4222,282661121.86072507
4235,29566.014689310112
4350,0.0
4471,207738.31847297587
2,1, 1, 1, 0,13, 0.00,60.00,Holiday
11,214980086.2180728
47,85906814.08418158
71,37987214.08418159
346,47919599.99999992
993,89913239.99999997
1017,89913239.99999997
1497,183655076.52524118
1533,11438885.168497468
1557,11438885.168497468
2228,7034875.734198607
2366,2454827.0603994296
4114,31911633.18569054
4126,16519577.605455209
4162,14199365.105798256
4222,169761364.29634429
4235,14509.008766293095
4350,0.0
4471,199014.20523590398
2,1, 1, 1, 0,14, 0.00,60.00,Holiday
11,214444947.5989789
47,85909190.02506958
71,37989590.0250696
346,47919599.99999992
993,89913239.99999997
1017,89913239.99999997
1497,117159359.28569827
1533,0.0
1557,0.0
2228,7293906.327220613
2366,2473892.238934975
4114,31076305.345472486
4126,16519577.605455209
4162,14199365.105798256
4222,114685467.04676329
4235,8577.377665750671
4350,45560.50322541898
4471,198168.02032515879
2,1, 1, 1, 0,15, 0.00,60.00,Holiday
11,215187680.78415058
47,85894077.0814126
71,37974477.08141263
346,47919599.99999992
993,89913239.99999997
1017,89913239.99999997
1497,119473062.01362393
1533,0.0
1557,0.0
2228,7300517.340873133
2366,2364138.334685279
4114,31087506.591927925
4126,16519577.605455209
4162,14199365.105798256
4222,117108923.67893866
4235,9455.950308890904
4350,784700.1305018314
4471,198183.68912627208
2,1, 1, 1, 0,16, 0.00,60.00,Holiday
11,215357697.38969446
47,86021627.3525972
71,38102027.35259722
346,47919599.99999992
993,89913239.99999997
1017,89913239.99999997
1497,128073292.73029904
1533,0.0
1557,0.0
2228,7379885.810555923
2366,2186610.4591708157
4114,31106104.293736724
4126,16527833.112040446
4162,14199365.105798256
4222,125886682.27112822
4235,10841.8726586072
4350,727744.7152844966
4471,198253.34486162893
2,1, 1, 1, 0,17, 0.00,60.00,Holiday
11,217735078.02274979
47,88893471.76673353
71,40973871.76673354
346,47919599.99999992
993,89913239.99999997
1017,89913239.99999997
1497,172720623.9176739
1533,28597212.921243654
1557,28597212.921243654
2228,7545592.688581925
2366,2457674.9456630579
4114,31085052.022700814
4126,16546292.699693684
4162,14199365.105798256
4222,141665736.0507672
4235,13175.394765109315
4350,85954.28865008937
4471,198591.86131844054
2,1, 1, 1, 0,18, 0.00,60.00,Holiday
11,191123307.61311666
47,78647111.99999994
71,30727511.99999999
346,47919599.99999992
993,74424959.99999996
1017,74424959.99999996
1497,241538589.056523
1533,28597212.921243654
1557,28597212.921243654
2228,6256530.74674348
2366,2414243.348839985
4114,31569399.854151057
4126,16519577.605455209
4162,14199365.105798256
4222,210527132.78643937
4235,22824.548576352787
4350,0.0
4471,202480.46364592229
2,1, 1, 1, 0,19, 0.00,60.00,Holiday
11,243506536.4498561
47,106749035.99999982
71,15931835.999999995
346,90817199.99999984
993,101834279.99999984
1017,101834279.99999984
1497,244449516.7856459
1533,28597212.921243654
1557,28597212.921243654
2228,5699288.829746724
2366,1915319.0381262268
4114,28968518.960198888
4126,14487417.026481724
4162,14199365.105798256
4222,213936984.826276
4235,37300.66527984625
4350,0.0
4471,218111.9946308947
2,1, 1, 1, 0,20, 0.00,60.00,Holiday
11,270980821.12363466
47,124250678.9999998
71,4835078.999999999
346,119415599.9999998
993,118816469.99999982
1017,118816469.99999982
1497,4338063.170172803
1533,0.0
1557,0.0
2228,5161517.5008581769
2366,1906495.805146711
4114,22752154.62277675
4126,8458341.339612136
4162,14199365.105798256
4222,2431567.365026092
4235,0.0
4350,0.0
4471,0.0
2,1, 1, 1, 0,21, 0.00,60.00,Holiday
11,298681917.2496056
47,138549878.9999998
71,4835078.999999999
346,133714799.99999979
993,133115669.99999979
1017,133115669.99999979
1497,4267806.402882719
1533,0.0
1557,0.0
2228,4267574.027149841
2366,1892382.879055676
4114,22748794.222456099
4126,8458341.339612136
4162,14199365.105798256
4222,2375423.523827044
4235,0.0
4350,0.0
4471,0.0
2,1, 1, 1, 0,22, 0.00,60.00,Holiday
11,269581240.32198747
47,124250678.9999998
71,4835078.999999999
346,119415599.9999998
993,118816469.99999982
1017,118816469.99999982
1497,10632108.801185096
1533,0.0
1557,0.0
2228,3488093.39144463
2366,1440085.2452209034
4114,23025997.930543107
4126,8458341.339612136
4162,14199365.105798256
4222,9192023.555964193
4235,0.0
4350,0.0
4471,0.0
2,1, 1, 1, 0,23, 0.00,60.00,Holiday
11,210181745.28989766
47,95652278.99999984
71,4835078.999999999
346,90817199.99999984
993,90218069.99999985
1017,90218069.99999985
1497,1261421.6442126393
1533,0.0
1557,0.0
2228,1653689.8444875209
2366,1261421.6442126393
4114,22657706.445410395
4126,8458341.339612136
4162,14199365.105798256
4222,0.0
4235,0.0
4350,0.0
4471,0.0
2,1, 1, 1, 0,24, 0.00,60.00,Holiday
11,124331734.9109647
47,52754678.99999992
71,4835078.999999999
346,47919599.99999992
993,47320469.999999929
1017,47320469.999999929
1497,1282168.4383278117
1533,0.0
1557,0.0
2228,1598879.4655543576
2366,1282168.4383278117
4114,22657706.445410395
4126,8458341.339612136
4162,14199365.105798256
4222,0.0
4235,0.0
4350,0.0
4471,0.0
2,2, 1, 2, 0, 1, 0.00,60.00,Friday
11,66322381.734288979
47,24156278.99999996
71,4835078.999999999
346,19321199.999999968
993,18722069.99999997
1017,18722069.99999997
1497,1045155.1733007989
1533,0.0
1557,0.0
2228,786326.2888786349
2366,1045155.1733007989
4114,22657706.445410395
4126,8458341.339612136
4162,14199365.105798256
4222,0.0
4235,0.0
4350,0.0
4471,0.0
2,2, 1, 2, 0, 2, 0.00,60.00,Friday
11,66541567.048367
47,24156278.99999996
71,4835078.999999999
346,19321199.999999968
993,18722069.99999997
1017,18722069.99999997
1497,6299873.5250965519
1533,0.0
1557,0.0
2228,792841.6768657649
2366,1034647.4828623792
4114,22870376.371501294
4126,8458341.339612136
4162,14199365.105798256
4222,5265226.042234173
4235,0.0
4350,0.0
4471,0.0
2,2, 1, 2, 0, 3, 0.00,60.00,Friday
11,67884960.30398055
47,24156278.99999996
71,4835078.999999999
346,19321199.999999968
993,18722069.99999997
1017,18722069.99999997
1497,20343143.08877428
1533,0.0
1557,0.0
2228,1585681.188231924
2366,1034820.8600362347
4114,23420930.11574868
4126,8458341.339612136
4162,14199365.105798256
4222,19308322.228738045
4235,0.0
4350,0.0
4471,0.0
2,2, 1, 2, 0, 4, 0.00,60.00,Friday
11,68020470.81336223
47,24156278.99999996
71,4835078.999999999
346,19321199.999999968
993,18722069.99999997
1017,18722069.99999997
1497,43613497.51684229
1533,0.0
1557,0.0
2228,786249.1703470224
2366,1029800.5574125436
4114,24355872.64301525
4126,8458341.339612136
4162,14199365.105798256
4222,42583696.95942974
4235,0.0
4350,0.0
4471,0.0
2,2, 1, 2, 0, 5, 0.00,60.00,Friday
11,68635783.82139746
47,24156278.99999996
71,4835078.999999999
346,19321199.999999968
993,18722069.99999997
1017,18722069.99999997
1497,58225282.899278078
1533,0.0
1557,0.0
2228,786304.8589361076
2366,1029831.6532192971
4114,24971129.962461406
4126,8458341.339612136
4162,14199365.105798256
4222,57195451.24605878
4235,0.0
4350,0.0
4471,0.0
2,2, 1, 2, 0, 6, 0.00,60.00,Friday
11,128684308.39035078
47,53890838.99999992
71,5971238.999999999
346,47919599.99999992
993,47871269.999999929
1017,47871269.999999929
1497,98537251.45500845
1533,0.0
1557,0.0
2228,786150.6209527387
2366,1036666.3090137567
4114,26136048.76939809
4126,10490501.918585619
4162,14199365.105798256
4222,97500585.1459947
4235,0.0
4350,0.0
4471,0.0
2,2, 1, 2, 0, 7, 0.00,60.00,Friday
11,212541875.75200696
47,80361638.99999988
71,5971238.999999999
346,74390399.99999988
993,69320069.9999999
1017,69320069.9999999
1497,1059760516.866227
1533,28597212.921243654
1557,28597212.921243654
2228,786384.3194620345
2366,1034577.2763050437
4114,61228780.42183049
4126,22777012.293321454
4162,14199365.105798256
4222,1030128726.6686783
4235,82524.89899350099
4350,0.0
4471,762477.1117211655
2,2, 1, 2, 0, 8, 0.00,60.00,Friday
11,227017488.40473587
47,95882826.03426014
71,21492426.03426027
346,74390399.99999988
993,83139479.99999988
1017,83139479.99999988
1497,725468673.7099454
1533,28882321.086319496
1557,28882321.086319496
2228,3457281.290581187
2366,1969736.364592637
4114,44160356.33681436
4126,16525531.576384768
4162,14199365.105798256
4222,694616616.2590332
4235,61923.02811921714
4350,0.0
4471,315621.7149611124
2,2, 1, 2, 0, 9, 0.00,60.00,Friday
11,280853404.6259751
47,122949848.02265464
71,48559448.02265477
346,74390399.99999988
993,112981499.99999987
1017,112981499.99999987
1497,533358912.072341
1533,285108.16507584266
1557,285108.16507584266
2228,4660717.91721401
2366,2364592.146139293
4114,39966093.22040765
4126,16519577.605455209
4162,14199365.105798256
4222,530709211.7611259
4235,46821.374001199794
4350,0.0
4471,248424.09169769553
2,2, 1, 2, 0,10, 0.00,60.00,Friday
11,340610912.5310904
47,150601735.28338138
71,76211335.28338142
346,74390399.99999988
993,143958059.99999995
1017,143958059.99999995
1497,467014926.41627088
1533,285108.16507584266
1557,285108.16507584266
2228,6130006.82457098
2366,2699491.3207236987
4114,39661251.07595617
4126,16572765.374530985
4162,14199365.105798256
4222,464030326.9304713
4235,34641.832480374076
4350,0.0
4471,225217.51470164833
2,2, 1, 2, 0,11, 0.00,60.00,Friday
11,302177630.2631619
47,129670381.21988318
71,76728781.2198832
346,52941599.9999999
993,122509259.99999996
1017,122509259.99999996
1497,486857735.81336727
1533,513194.69713651677
1557,513194.69713651677
2228,8826426.590434377
2366,3467311.2888833826
4114,40917065.623734828
4126,16640856.323987434
4162,14199365.105798256
4222,482877229.8273474
4235,33085.956343631246
4350,0.0
4471,221410.87276596484
2,2, 1, 2, 0,12, 0.00,60.00,Friday
11,303974407.96930137
47,129117112.44542097
71,76175512.44542098
346,52941599.9999999
993,122509259.99999996
1017,122509259.99999996
1497,483727971.9515344
1533,11952079.865633984
1557,11952079.865633984
2228,11413409.703810377
2366,3986768.2703233698
4114,40682396.761604297
4126,16875825.66332712
4162,14199365.105798256
4222,467789123.81557705
4235,32416.892203914846
4350,0.0
4471,219812.16626198014
2,2, 1, 2, 0,13, 0.00,60.00,Friday
11,303030199.7269602
47,128268170.35276652
71,75326570.35276653
346,52941599.9999999
993,122509259.99999996
1017,122509259.99999996
1497,440827541.6335116
1533,11952079.865633984
1557,11952079.865633984
2228,12437213.77429311
2366,4464174.263512471
4114,39571836.835478138
4126,16941342.605648735
4162,14199365.105798256
4222,424411287.5043652
4235,29654.353250584194
4350,0.0
4471,214064.4111719249
2,2, 1, 2, 0,14, 0.00,60.00,Friday
11,304298873.1910559
47,129472246.97287455
71,76530646.97287458
346,52941599.9999999
993,122509259.99999996
1017,122509259.99999996
1497,397934091.9003334
1533,513194.69713651677
1557,513194.69713651677
2228,12924169.058774207
2366,4472175.726417831
4114,39158319.482345517
4126,17067133.337159069
4162,14199365.105798256
4222,392948721.476779
4235,26374.963532068938
4350,0.0
4471,208502.71352966628
2,2, 1, 2, 0,15, 0.00,60.00,Friday
11,300116050.189771
47,128760701.85788082
71,75819101.85788083
346,52941599.9999999
993,122509259.99999996
1017,122509259.99999996
1497,358581618.4848876
1533,427662.2476137639
1557,427662.2476137639
2228,10111143.627090924
2366,3570661.5023249525
4114,38507490.638988409
4126,17283557.743118846
4162,14199365.105798256
4222,354583294.7349489
4235,23066.79699983771
4350,0.0
4471,204387.2688110565
2,2, 1, 2, 0,16, 0.00,60.00,Friday
11,292825593.5269965
47,124993244.29378936
71,72051644.29378937
346,52941599.9999999
993,122509259.99999996
1017,122509259.99999996
1497,274608422.16397026
1533,427662.2476137639
1557,427662.2476137639
2228,9055991.671789337
2366,3209204.4331523447
4114,36045399.44265989
4126,17860026.82034605
4162,14199365.105798256
4222,270971555.4832041
4235,19983.40815342252
4350,0.0
4471,201714.7106044904
2,2, 1, 2, 0,17, 0.00,60.00,Friday
11,297120995.4841768
47,129668360.36549469
71,76726760.3654947
346,52941599.9999999
993,122509259.99999996
1017,122509259.99999996
1497,286327012.8696543
1533,29024875.168857416
1557,29024875.168857416
2228,9007304.16794281
2366,3642057.736831325
4114,35716353.42261333
4126,17954436.53452863
4162,14199365.105798256
4222,253660079.96396557
4235,18798.489548573834
4350,0.0
4471,200919.03857751704
2,2, 1, 2, 0,18, 0.00,60.00,Friday
11,287986371.14453867
47,123776342.99999996
71,70834742.99999997
346,52941599.9999999
993,118102859.99999997
1017,118102859.99999997
1497,317023239.9117056
1533,29024875.168857416
1557,29024875.168857416
2228,9562518.905530997
2366,3127121.2836454187
4114,36322801.06935666
4126,17440212.332127416
4162,14199365.105798256
4222,284871243.45920279
4235,20098.46796721996
4350,0.0
4471,201749.70168388746
2,2, 1, 2, 0,19, 0.00,60.00,Friday
11,320849475.5020037
47,143344268.99999986
71,47505068.99999999
346,95839199.99999984
993,135564839.99999989
1017,135564839.99999989
1497,265374856.24823828
1533,28597212.921243654
1557,28597212.921243654
2228,9143892.38896637
2366,2983514.3202352377
4114,32567513.319844579
4126,16736841.882191904
4162,14199365.105798256
4222,233794129.0067594
4235,23957.947399904908
4350,0.0
4471,205002.84579318955
2,2, 1, 2, 0,20, 0.00,60.00,Friday
11,374311438.95374956
47,171942668.99999974
71,47505068.99999999
346,124437599.9999998
993,164163239.99999974
1017,164163239.99999974
1497,253176930.18472485
1533,0.0
1557,0.0
2228,6315655.3111744
2366,2484196.2583485769
4114,31644416.921334126
4126,16591546.47036094
4162,14199365.105798256
4222,250692733.92637626
4235,30393.944381947145
4350,0.0
4471,215063.77685944085
2,2, 1, 2, 0,21, 0.00,60.00,Friday
11,389004648.7323722
47,180270629.9999997
71,41533829.999999988
346,138736799.9999998
993,169616699.99999974
1017,169616699.99999974
1497,275322688.33669319
1533,0.0
1557,0.0
2228,7168009.063648343
2366,2516612.8436969036
4114,31690998.77970416
4126,16526354.799049724
4162,14199365.105798256
4222,272806075.4929963
4235,33935.603948912765
4350,0.0
4471,224375.2850712647
2,2, 1, 2, 0,22, 0.00,60.00,Friday
11,307046124.5614145
47,143777915.9999998
71,19340315.999999998
346,124437599.9999998
993,132085079.9999998
1017,132085079.9999998
1497,105846121.35248591
1533,0.0
1557,0.0
2228,4657286.489608547
2366,1972936.5141995378
4114,26525842.071806268
4126,10490501.918585619
4162,14199365.105798256
4222,103873184.83828639
4235,0.0
4350,0.0
4471,0.0
2,2, 1, 2, 0,23, 0.00,60.00,Friday
11,214793836.6199088
47,96788438.99999984
71,5971238.999999999
346,90817199.99999984
993,90768869.99999985
1017,90768869.99999985
1497,62513289.4107537
1533,0.0
1557,0.0
2228,2546660.5955251806
2366,1347819.6575588973
4114,24689867.024383874
4126,10490501.918585619
4162,14199365.105798256
4222,61165469.753194797
4235,0.0
4350,0.0
4471,0.0
2,2, 1, 2, 0,24, 0.00,60.00,Friday
11,126391020.19245894
47,52754678.99999992
71,4835078.999999999
346,47919599.99999992
993,47320469.999999929
1017,47320469.999999929
1497,62479156.71181365
1533,0.0
1557,0.0
2228,1626004.1680751127
2366,1313686.9586188526
4114,24689867.024383874
4126,10490501.918585619
4162,14199365.105798256
4222,61165469.753194797
4235,0.0
4350,0.0
4471,0.0
2,3, 1, 3, 0, 1, 0.00,60.00,Saturday
11,68346237.41891298
47,24156278.99999996
71,4835078.999999999
346,19321199.999999968
993,18722069.99999997
1017,18722069.99999997
1497,8413149.235876061
1533,0.0
1557,0.0
2228,2502042.6425141629
2366,1333831.7778162203
4114,22965845.776398869
4126,8458341.339612136
4162,14199365.105798256
4222,7079317.458059839
4235,0.0
4350,0.0
4471,0.0
2,3, 1, 3, 0, 2, 0.00,60.00,Saturday
11,69065472.05100109
47,24156278.99999996
71,4835078.999999999
346,19321199.999999968
993,18722069.99999997
1017,18722069.99999997
1497,45336394.11910756
1533,0.0
1557,0.0
2228,1653521.2432759545
2366,1326989.6025468254
4114,24533601.80772519
4126,8458341.339612136
4162,14199365.105798256
4222,44009404.51656073
4235,0.0
4350,0.0
4471,0.0
2,3, 1, 3, 0, 3, 0.00,60.00,Saturday
11,71112174.51564709
47,24156278.99999996
71,4835078.999999999
346,19321199.999999968
993,18722069.99999997
1017,18722069.99999997
1497,94363619.51001525
1533,0.0
1557,0.0
2228,1625972.41185833
2366,1149688.9275859148
4114,26607853.103788824
4126,8458341.339612136
4162,14199365.105798256
4222,93213930.58242934
4235,0.0
4350,0.0
4471,0.0
2,3, 1, 3, 0, 4, 0.00,60.00,Saturday
11,73342173.399319
47,24156278.99999996
71,4835078.999999999
346,19321199.999999968
993,18722069.99999997
1017,18722069.99999997
1497,146102827.5659141
1533,0.0
1557,0.0
2228,1598744.9757337557
2366,1202136.47585884
4114,28865079.423585297
4126,8458341.339612136
4162,14199365.105798256
4222,144900691.09005527
4235,0.0
4350,0.0
4471,0.0
2,3, 1, 3, 0, 5, 0.00,60.00,Saturday
11,75451784.27320446
47,24156278.99999996
71,4835078.999999999
346,19321199.999999968
993,18722069.99999997
1017,18722069.99999997
1497,196079594.39767338
1533,0.0
1557,0.0
2228,1598702.16775249
2366,1040106.5392968315
4114,30974733.10545201
4126,8458341.339612136
4162,14199365.105798256
4222,195039487.85837654
4235,0.0
4350,0.0
4471,0.0
2,3, 1, 3, 0, 6, 0.00,60.00,Saturday
11,132989551.48348218
47,52754678.99999992
71,4835078.999999999
346,47919599.99999992
993,47320469.999999929
1017,47320469.999999929
1497,237176206.9637872
1533,0.0
1557,0.0
2228,799460.2450536871
2366,1309020.46756999
4114,32114942.23842856
4126,10490501.918585619
4162,14199365.105798256
4222,235867186.49621726
4235,0.0
4350,0.0
4471,0.0
2,3, 1, 3, 0, 7, 0.00,60.00,Saturday
11,224150128.28618003
47,80361638.99999988
71,5971238.999999999
346,74390399.99999988
993,69320069.9999999
1017,69320069.9999999
1497,1421806444.1801055
1533,28597212.921243654
1557,28597212.921243654
2228,1612007.69602544
2366,1050144.9160482432
4114,71665573.27445176
4126,21070119.551066504
4162,14199365.105798256
4222,1392159086.3428136
4235,102085.43142306067
4350,0.0
4471,1088752.8842799769
2,3, 1, 3, 0, 8, 0.00,60.00,Saturday
11,216142344.08779837
47,83973083.0142079
71,9582683.01420803
346,74390399.99999988
993,73192139.99999988
1017,73192139.99999988
1497,1053306584.7460389
1533,28597212.921243654
1557,28597212.921243654
2228,4122135.9004247228
2366,1986023.5921617724
4114,54055559.7852924
4126,16519577.605455209
4162,14199365.105798256
4222,1022723348.2326334
4235,85996.66608144927
4350,0.0
4471,713428.7217919908
2,3, 1, 3, 0, 9, 0.00,60.00,Saturday
11,244695809.39688043
47,100918684.4939912
71,26528284.493991328
346,74390399.99999988
993,90883619.99999987
1017,90883619.99999987
1497,814650787.572519
1533,285108.16507584266
1557,285108.16507584266
2228,5123474.916175538
2366,2050349.950750824
4114,47142997.33480804
4126,16519577.605455209
4162,14199365.105798256
4222,812315329.4566923
4235,73693.29260857895
4350,0.0
4471,553339.3592972158
2,3, 1, 3, 0,10, 0.00,60.00,Saturday
11,280700705.59813109
47,118042330.87895648
71,43651930.8789566
346,74390399.99999988
993,114116039.99999988
1017,114116039.99999988
1497,649130892.0124598
1533,285108.16507584266
1557,285108.16507584266
2228,5057350.526989333
2366,2237147.3910785659
4114,43020595.71299042
4126,16563857.917514787
4162,14199365.105798256
4222,646608636.4563055
4235,56896.75644075519
4350,0.0
4471,407491.72275418668
2,3, 1, 3, 0,11, 0.00,60.00,Saturday
11,283423792.47987118
47,116843311.32871887
71,63901711.328718889
346,52941599.9999999
993,115899659.99999997
1017,115899659.99999997
1497,573301670.8415146
1533,513194.69713651677
1557,513194.69713651677
2228,8897271.531953682
2366,2836115.9630211687
4114,41419884.25445884
4126,16685727.70510191
4162,14199365.105798256
4222,569952360.1813569
4235,48345.22559145317
4350,0.0
4471,315320.1391484408
2,3, 1, 3, 0,12, 0.00,60.00,Saturday
11,282700595.0022628
47,116821272.14340557
71,63879672.143405597
346,52941599.9999999
993,115899659.99999997
1017,115899659.99999997
1497,487066996.8080441
1533,11952079.865633984
1557,11952079.865633984
2228,10673213.1980315
2366,3612543.0733306559
4114,39009684.066902387
4126,16951349.11721488
4162,14199365.105798256
4222,471502373.8690794
4235,40805.081057527
4350,0.0
4471,255960.51286590188
2,3, 1, 3, 0,13, 0.00,60.00,Saturday
11,276880257.9727781
47,113435877.11637947
71,60494277.11637949
346,52941599.9999999
993,114247259.99999997
1017,114247259.99999997
1497,388477672.06054869
1533,11952079.865633984
1557,11952079.865633984
2228,12246327.693124438
2366,3707959.4667898027
4114,36695882.24248957
4126,17021166.862241653
4162,14199365.105798256
4222,372817632.7281249
4235,32536.538467771607
4350,0.0
4471,222374.3823169205
2,3, 1, 3, 0,14, 0.00,60.00,Saturday
11,275380637.0472963
47,113378598.57241327
71,60436998.572413299
346,52941599.9999999
993,114247259.99999997
1017,114247259.99999997
1497,292218543.10980257
1533,513194.69713651677
1557,513194.69713651677
2228,12313271.733657595
2366,3722934.0482555294
4114,35052273.05707201
4126,17401462.670078424
4162,14199365.105798256
4222,287982414.3644105
4235,25626.822168083614
4350,155602.06527443685
4471,208004.79671097734
2,3, 1, 3, 0,15, 0.00,60.00,Saturday
11,272577695.5928378
47,113244358.33565715
71,60302758.335657168
346,52941599.9999999
993,114247259.99999997
1017,114247259.99999997
1497,226322941.090986
1533,427662.2476137639
1557,427662.2476137639
2228,9973649.99681367
2366,3069468.1864426315
4114,34262385.67962504
4126,17968773.347083499
4162,14199365.105798256
4222,222825810.65692965
4235,19757.16319633977
4350,628551.6254039377
4471,201732.79214180777
2,3, 1, 3, 0,16, 0.00,60.00,Saturday
11,272775488.3587836
47,113453292.60621296
71,60511692.60621297
346,52941599.9999999
993,114247259.99999997
1017,114247259.99999997
1497,200236355.73930646
1533,427662.2476137639
1557,427662.2476137639
2228,9844116.751673563
2366,3023631.559151364
4114,34161969.49014883
4126,18354438.567732004
4162,14199365.105798256
4222,196785061.9325413
4235,17324.353905897664
4350,851466.7613780398
4471,200058.3954643613
2,3, 1, 3, 0,17, 0.00,60.00,Saturday
11,276613359.93155029
47,117757756.93878509
71,64816156.938785109
346,52941599.9999999
993,114247259.99999997
1017,114247259.99999997
1497,239891006.7060271
1533,29024875.168857416
1557,29024875.168857416
2228,9718970.309560936
2366,3021201.189178752
4114,34516425.33591352
4126,18503603.235075639
4162,14199365.105798256
4222,207844930.34799097
4235,17904.52600549137
4350,154808.3372131805
4471,200234.48407218685
2,3, 1, 3, 0,18, 0.00,60.00,Saturday
11,269494317.6788179
47,111937382.99999996
71,64017782.99999998
346,47919599.99999992
993,113145659.99999997
1017,113145659.99999997
1497,302586497.94747647
1533,28597212.921243654
1557,28597212.921243654
2228,9094388.96824719
2366,2943841.8394750698
4114,35087784.3143868
4126,17921389.327165616
4162,14199365.105798256
4222,271045443.1867577
4235,24142.055674154282
4350,0.0
4471,204959.34050991178
2,3, 1, 3, 0,19, 0.00,60.00,Saturday
11,295836975.31870868
47,128942549.99999987
71,38125349.999999988
346,90817199.99999984
993,125066699.99999988
1017,125066699.99999988
1497,338296525.61761936
1533,28597212.921243654
1557,28597212.921243654
2228,8681445.913981872
2366,2907362.8926771685
4114,32887127.519316004
4126,16531945.688901525
4162,14199365.105798256
4222,306791949.8036985
4235,34336.35170989221
4350,0.0
4471,224815.53370115185
2,3, 1, 3, 0,20, 0.00,60.00,Saturday
11,318483980.6748853
47,142745273.9999998
71,23329673.999999994
346,119415599.9999998
993,138176819.9999998
1017,138176819.9999998
1497,246376106.5120254
1533,0.0
1557,0.0
2228,7462775.551553967
2366,2460620.3632958459
4114,29817652.996439369
4126,14487417.026481724
4162,14199365.105798256
4222,243915486.14872954
4235,39168.85724591972
4350,0.0
4471,242289.2696463215
2,3, 1, 3, 0,21, 0.00,60.00,Saturday
11,345039557.55981907
47,157044473.99999977
71,23329673.999999994
346,133714799.99999979
993,152476019.99999977
1017,152476019.99999977
1497,251278009.94279526
1533,0.0
1557,0.0
2228,5933708.786692235
2366,2068077.4996191653
4114,29291518.36978163
4126,14487417.026481724
4162,14199365.105798256
4222,249209932.4431761
4235,43213.45974434427
4350,0.0
4471,250622.94360117924
2,3, 1, 3, 0,22, 0.00,60.00,Saturday
11,286097905.46527239
47,127949597.9999998
71,8533997.999999999
346,119415599.9999998
993,122688539.9999998
1017,122688539.9999998
1497,334178729.6256989
1533,0.0
1557,0.0