Program Version,EnergyPlus, Version 9.0.1-bb7ca4f0da, YMD=2019.12.17 17:31
1,5,Environment Title[],Latitude[deg],Longitude[deg],Time Zone[],Elevation[m]
2,8,Day of Simulation[],Month[],Day of Month[],DST Indicator[1=yes 0=no],Hour[],StartMinute[],EndMinute[],DayType
3,5,Cumulative Day of Simulation[],Month[],Day of Month[],DST Indicator[1=yes 0=no],DayType  ! When Daily Meters Requested
4,2,Cumulative Days of Simulation[],Month[]  ! When Monthly Meters Requested
5,1,Cumulative Days of Simulation[] ! When Run Period Meters Requested
6,1,Calendar Year of Simulation[] ! When Annual Meters Requested
11,1,Electricity:Facility [J] !Hourly
1557,1,Receptacle:InteriorEquipment:Gas [J] !Hourly
1533,1,InteriorEquipment:Gas [J] !Hourly
47,1,InteriorLights:Electricity [J] !Hourly
4114,1,Fans:Electricity [J] !Hourly
1017,1,Receptacle:InteriorEquipment:Electricity [J] !Hourly
2228,1,WaterSystems:Electricity [J] !Hourly
4236,1,Heating:Gas [J] !Hourly
993,1,InteriorEquipment:Electricity [J] !Hourly
4473,1,Pumps:Electricity [J] !Hourly
4210,1,Heating:Electricity [J] !Hourly
4348,1,Cooling:Electricity [J] !Hourly
1497,1,Gas:Facility [J] !Hourly
4126,1,General:Fans:Electricity [J] !Hourly
2366,1,WaterSystems:Gas [J] !Hourly
71,1,ComplianceLtg:InteriorLights:Electricity [J] !Hourly
346,1,NonComplianceLtg:InteriorLights:Electricity [J] !Hourly
4162,1,ProcessMotors:Fans:Electricity [J] !Hourly
End of Data Dictionary
1,SAN-DIEGO-LINDBERGH_722900_CZ2010,  32.73,-117.17,  -8.00,   4.00
2,1, 1, 1, 0, 1, 0.00,60.00,Holiday
11,66337979.16710846
47,24156278.99999996
71,4835078.999999999
346,19321199.999999968
993,18722069.99999997
1017,18722069.99999997
1497,1039286.286026072
1533,0.0
1557,0.0
2228,801923.7216981216
2366,1039286.286026072
4114,22657706.445410395
4126,8458341.339612136
4162,14199365.105798258
4210,0.0
4236,0.0
4348,0.0
4473,0.0
2,1, 1, 1, 0, 2, 0.00,60.00,Holiday
11,67139985.48802035
47,24156278.99999996
71,4835078.999999999
346,19321199.999999968
993,18722069.99999997
1017,18722069.99999997
1497,1039258.1384220762
1533,0.0
1557,0.0
2228,1603930.0426100004
2366,1039258.1384220762
4114,22657706.445410395
4126,8458341.339612136
4162,14199365.105798258
4210,0.0
4236,0.0
4348,0.0
4473,0.0
2,1, 1, 1, 0, 3, 0.00,60.00,Holiday
11,67076558.63767101
47,24156278.99999996
71,4835078.999999999
346,19321199.999999968
993,18722069.99999997
1017,18722069.99999997
1497,1039330.7457634196
1533,0.0
1557,0.0
2228,1540503.1922606705
2366,1039330.7457634196
4114,22657706.445410395
4126,8458341.339612136
4162,14199365.105798258
4210,0.0
4236,0.0
4348,0.0
4473,0.0
2,1, 1, 1, 0, 4, 0.00,60.00,Holiday
11,66394423.15311402
47,24156278.99999996
71,4835078.999999999
346,19321199.999999968
993,18722069.99999997
1017,18722069.99999997
1497,1293004.7342478838
1533,0.0
1557,0.0
2228,858367.7077036786
2366,1293004.7342478838
4114,22657706.445410395
4126,8458341.339612136
4162,14199365.105798258
4210,0.0
4236,0.0
4348,0.0
4473,0.0
2,1, 1, 1, 0, 5, 0.00,60.00,Holiday
11,66331882.295877669
47,24156278.99999996
71,4835078.999999999
346,19321199.999999968
993,18722069.99999997
1017,18722069.99999997
1497,1034036.6971378413
1533,0.0
1557,0.0
2228,795826.8504673238
2366,1034036.6971378413
4114,22657706.445410395
4126,8458341.339612136
4162,14199365.105798258
4210,0.0
4236,0.0
4348,0.0
4473,0.0
2,1, 1, 1, 0, 6, 0.00,60.00,Holiday
11,144671315.5680958
47,52754678.99999992
71,4835078.999999999
346,47919599.99999992
993,47320469.999999929
1017,47320469.999999929
1497,1040447.242878251
1533,0.0
1557,0.0
2228,1591661.5498025348
2366,1040447.242878251
4114,24689867.024383878
4126,10490501.918585619
4162,14199365.105798258
4210,18314637.993909465
4236,0.0
4348,0.0
4473,0.0
2,1, 1, 1, 0, 7, 0.00,60.00,Holiday
11,193997903.7562524
47,74193748.79176516
71,4825348.791765277
346,69368399.9999999
993,68769269.9999999
1017,68769269.9999999
1497,180342350.1838319
1533,28597212.921243654
1557,28597212.921243654
2228,1579222.520850379
2366,1039379.5648021103
4114,31356124.707871517
4126,10490501.91858562
4162,14199365.10579826
4210,18099537.73576545
4236,150705757.69778616
4348,0.0
4473,0.0
2,1, 1, 1, 0, 8, 0.00,60.00,Holiday
11,186938343.11630548
47,73951398.6956239
71,4582998.695624028
346,69368399.9999999
993,68769269.9999999
1017,68769269.9999999
1497,94129882.7711066
1533,28597212.921243654
1557,28597212.921243654
2228,1666393.1648207224
2366,1317206.4248164625
4114,27530347.313110744
4126,10490501.918585619
4162,14199365.105798258
4210,15020933.942750169
4236,64215463.42504649
4348,0.0
4473,0.0
2,1, 1, 1, 0, 9, 0.00,60.00,Holiday
11,199913267.7998583
47,77197103.23652895
71,7828703.236529075
346,69368399.9999999
993,72641339.99999988
1017,72641339.99999988
1497,322357548.9190694
1533,0.0
1557,0.0
2228,2500972.2045284288
2366,1329403.465016057
4114,34688576.54471281
4126,19213127.599133593
4162,14199365.105798258
4210,12400177.467672104
4236,321028145.45405337
4348,0.0
4473,485098.3464161231
2,1, 1, 1, 0,10, 0.00,60.00,Holiday
11,194329751.8563455
47,77200419.52074296
71,7832019.520743076
346,69368399.9999999
993,72641339.99999988
1017,72641339.99999988
1497,229982128.65347249
1533,0.0
1557,0.0
2228,2541276.349156688
2366,1341844.4932993639
4114,31158626.720881586
4126,16519577.605455207
4162,14199365.105798258
4210,10562008.712206327
4236,228640284.16017313
4348,0.0
4473,226080.55335803046
2,1, 1, 1, 0,11, 0.00,60.00,Holiday
11,194941136.19021727
47,75873593.503455
71,27953993.50345505
346,47919599.99999992
993,74424959.99999996
1017,74424959.99999996
1497,107101158.22391783
1533,0.0
1557,0.0
2228,4817804.966446417
2366,2021727.7591232467
4114,30818749.104715609
4126,16519577.605455207
4162,14199365.105798258
4210,8805763.222725604
4236,105079430.46479458
4348,0.0
4473,200265.3928747055
2,1, 1, 1, 0,12, 0.00,60.00,Holiday
11,194965601.16322226
47,75813020.98436561
71,27893420.984365647
346,47919599.99999992
993,74424959.99999996
1017,74424959.99999996
1497,72823630.56917355
1533,11438885.168497468
1557,11438885.168497468
2228,5889513.397412407
2366,2051523.5536600566
4114,30803197.320679565
4126,16519577.605455207
4162,14199365.105798258
4210,7419306.004548159
4236,59333221.84701602
4348,417333.6799493652
4473,198269.77626724146
2,1, 1, 1, 0,13, 0.00,60.00,Holiday
11,223261871.38701213
47,86044682.39859878
71,38125082.398598808
346,47919599.99999992
993,89913239.99999997
1017,89913239.99999997
1497,24919470.727649809
1533,11438885.168497468
1557,11438885.168497468
2228,7208434.832205024
2366,2406582.9086464636
4114,30902983.347109304
4126,16519577.605455207
4162,14199365.105798258
4210,6657424.763728113
4236,11074002.650505882
4348,2336376.266735677
4473,198729.77863531118
2,1, 1, 1, 0,14, 0.00,60.00,Holiday
11,225927184.7931639
47,85698193.93229915
71,37778593.93229918
346,47919599.99999992
993,89913239.99999997
1017,89913239.99999997
1497,11009731.57254364
1533,0.0
1557,0.0
2228,6178589.226503109
2366,2120199.8281156967
4114,31466340.15209115
4126,16519577.605455207
4162,14199365.105798258
4210,6519204.539152206
4236,8889531.744427946
4348,5952819.776968067
4473,198797.1661503428
2,1, 1, 1, 0,15, 0.00,60.00,Holiday
11,228185192.39923323
47,85939377.95414353
71,38019777.954143557
346,47919599.99999992
993,89913239.99999997
1017,89913239.99999997
1497,10688089.590664266
1533,0.0
1557,0.0
2228,6345871.175041562
2366,2381702.8171656357
4114,31712222.575345085
4126,16532083.72344966
4162,14199365.105798258
4210,6423431.55450673
4236,8306386.773498629
4348,7652234.640264248
4473,198814.49993210214
2,1, 1, 1, 0,16, 0.00,60.00,Holiday
11,230559693.53868724
47,86209858.1036853
71,38290258.10368533
346,47919599.99999992
993,89913239.99999997
1017,89913239.99999997
1497,10122966.562566802
1533,0.0
1557,0.0
2228,6847992.115766544
2366,2085029.5100118337
4114,31769683.768302725
4126,16562444.528145725
4162,14199365.105798258
4210,5957971.2141382419
4236,8037937.052554968
4348,9662126.266147417
4473,198822.0706470844
2,1, 1, 1, 0,17, 0.00,60.00,Holiday
11,229980188.38032044
47,89244305.65458578
71,41324705.65458581
346,47919599.99999992
993,89913239.99999997
1017,89913239.99999997
1497,38825954.12980675
1533,28597212.921243654
1557,28597212.921243654
2228,6559870.212947236
2366,2408334.8211642506
4114,31272404.30088006
4126,16571083.248966307
4162,14199365.105798258
4210,5957859.287141801
4236,7820406.387398848
4348,6833680.242732006
4473,198828.68203363988
2,1, 1, 1, 0,18, 0.00,60.00,Holiday
11,199833927.34292118
47,78647111.99999994
71,30727511.99999999
346,47919599.99999992
993,74424959.99999996
1017,74424959.99999996
1497,50664475.606028918
1533,28597212.921243654
1557,28597212.921243654
2228,6756030.172845867
2366,2074275.457706492
4114,30749156.986730249
4126,16519577.605455207
4162,14199365.105798258
4210,6410134.551618766
4236,19992987.227078774
4348,2648059.106360808
4473,198474.5253656259
2,1, 1, 1, 0,19, 0.00,60.00,Holiday
11,243305340.39285458
47,106749035.99999982
71,15931835.999999995
346,90817199.99999984
993,101834279.99999984
1017,101834279.99999984
1497,96601266.84436397
1533,28597212.921243654
1557,28597212.921243654
2228,4647420.97284437
2366,1880195.6203189889
4114,28805841.08429572
4126,14487417.026481722
4162,14199365.105798258
4210,11838.843931083708
4236,66123858.302801329
4348,1058549.9849638777
4473,198373.5068197992
2,1, 1, 1, 0,20, 0.00,60.00,Holiday
11,274339598.2834984
47,124250678.9999998
71,4835078.999999999
346,119415599.9999998
993,118816469.99999982
1017,118816469.99999982
1497,1817513.4780421127
1533,0.0
1557,0.0
2228,4730639.650354441
2366,1817513.4780421127
4114,23310490.72211373
4126,8458341.339612136
4162,14199365.105798258
4210,0.0
4236,0.0
4348,3231318.9110304519
4473,0.0
2,1, 1, 1, 0,21, 0.00,60.00,Holiday
11,304369186.37833586
47,138549878.9999998
71,4835078.999999999
346,133714799.99999979
993,133115669.99999979
1017,133115669.99999979
1497,1665117.1449936084
1533,0.0
1557,0.0
2228,3590907.057441887
2366,1665117.1449936084
4114,23742986.996404716
4126,8458341.339612136
4162,14199365.105798258
4210,0.0
4236,0.0
4348,5369743.32448951
4473,0.0
2,1, 1, 1, 0,22, 0.00,60.00,Holiday
11,272976740.6869241
47,124250678.9999998
71,4835078.999999999
346,119415599.9999998
993,118816469.99999982
1017,118816469.99999982
1497,1635811.2169422289
1533,0.0
1557,0.0
2228,3444161.0806581417
2366,1635811.2169422289
4114,23298214.237470434
4126,8458341.339612136
4162,14199365.105798258
4210,0.0
4236,0.0
4348,3167216.3687958626
4473,0.0
2,1, 1, 1, 0,23, 0.00,60.00,Holiday
11,210984031.58967863
47,95652278.99999984
71,4835078.999999999
346,90817199.99999984
993,90218069.99999985
1017,90218069.99999985
1497,1053492.442193517
1533,0.0
1557,0.0
2228,1641167.9893554969
2366,1053492.442193517
4114,22794824.20727912
4126,8458341.339612136
4162,14199365.105798258
4210,0.0
4236,0.0
4348,677690.3930442699
4473,0.0
2,1, 1, 1, 0,24, 0.00,60.00,Holiday
11,124324524.56813452
47,52754678.99999992
71,4835078.999999999
346,47919599.99999992
993,47320469.999999929
1017,47320469.999999929
1497,1288760.5126744444
1533,0.0
1557,0.0
2228,1591669.1227241678
2366,1288760.5126744444
4114,22657706.445410395
4126,8458341.339612136
4162,14199365.105798258
4210,0.0
4236,0.0
4348,0.0
4473,0.0
2,2, 1, 2, 0, 1, 0.00,60.00,Friday
11,66320065.055615957
47,24156278.99999996
71,4835078.999999999
346,19321199.999999968
993,18722069.99999997
1017,18722069.99999997
1497,912916.8664033897
1533,0.0
1557,0.0
2228,784009.6102056138
2366,912916.8664033897
4114,22657706.445410395
4126,8458341.339612136
4162,14199365.105798258
4210,0.0
4236,0.0
4348,0.0
4473,0.0
2,2, 1, 2, 0, 2, 0.00,60.00,Friday
11,66325870.16582721
47,24156278.99999996
71,4835078.999999999
346,19321199.999999968
993,18722069.99999997
1017,18722069.99999997
1497,1150456.5675986736
1533,0.0
1557,0.0
2228,789814.720416864
2366,1150456.5675986736
4114,22657706.445410395
4126,8458341.339612136
4162,14199365.105798258
4210,0.0
4236,0.0
4348,0.0
4473,0.0
2,2, 1, 2, 0, 3, 0.00,60.00,Friday
11,66326017.07003947
47,24156278.99999996
71,4835078.999999999
346,19321199.999999968
993,18722069.99999997
1017,18722069.99999997
1497,1031361.9385995467
1533,0.0
1557,0.0
2228,789961.6246291386
2366,1031361.9385995467
4114,22657706.445410395
4126,8458341.339612136
4162,14199365.105798258
4210,0.0
4236,0.0
4348,0.0
4473,0.0
2,2, 1, 2, 0, 4, 0.00,60.00,Friday
11,66320031.53008742
47,24156278.99999996
71,4835078.999999999
346,19321199.999999968
993,18722069.99999997
1017,18722069.99999997
1497,1026740.9050384888
1533,0.0
1557,0.0
2228,783976.0846770782
2366,1026740.9050384888
4114,22657706.445410395
4126,8458341.339612136
4162,14199365.105798258
4210,0.0
4236,0.0
4348,0.0
4473,0.0
2,2, 1, 2, 0, 5, 0.00,60.00,Friday
11,66320029.44765609
47,24156278.99999996
71,4835078.999999999
346,19321199.999999968
993,18722069.99999997
1017,18722069.99999997
1497,1026696.8421689684
1533,0.0
1557,0.0
2228,783974.0022457484
2366,1026696.8421689684
4114,22657706.445410395
4126,8458341.339612136
4162,14199365.105798258
4210,0.0
4236,0.0
4348,0.0
4473,0.0
2,2, 1, 2, 0, 6, 0.00,60.00,Friday
11,138977270.14522407
47,53890838.99999992
71,5971238.999999999
346,47919599.99999992
993,47871269.999999929
1017,47871269.999999929
1497,1032819.282592877
1533,0.0
1557,0.0
2228,784023.1052702761
2366,1032819.282592877
4114,24689867.024383878
4126,10490501.918585619
4162,14199365.105798258
4210,11741271.015569969
4236,0.0
4348,0.0
4473,0.0
2,2, 1, 2, 0, 7, 0.00,60.00,Friday
11,201010000.31905429
47,80355554.46765839
71,5965154.467658507
346,74390399.99999988
993,69320069.9999999
1017,69320069.9999999
1497,436219473.34395149
1533,28597212.921243654
1557,28597212.921243654
2228,783919.8170588393
2366,1031152.3132552529
4114,37992920.34137183
4126,19167830.99713026
4162,14199365.105798258
4210,11993083.584652013
4236,406591108.10945257
4348,0.0
4473,564452.1083132984
2,2, 1, 2, 0, 8, 0.00,60.00,Friday
11,226384851.4793422
47,95271907.565841
71,20881507.565841143
346,74390399.99999988
993,83139479.99999988
1017,83139479.99999988
1497,324196371.0632344
1533,28882321.086319496
1557,28882321.086319496
2228,2562103.6466446605
2366,1669805.9176437637
4114,33203462.350545236
4126,16519577.605455207
4162,14199365.105798258
4210,11974628.205803734
4236,293644244.0592711
4348,0.0
4473,233269.7105076181
2,2, 1, 2, 0, 9, 0.00,60.00,Friday
11,279209855.1716893
47,122658018.6487627
71,48267618.648762848
346,74390399.99999988
993,112981499.99999987
1017,112981499.99999987
1497,160050458.61371974
1533,285108.16507584266
1557,285108.16507584266
2228,4570317.921168047
2366,2137239.192703478
4114,31503945.002570593
4126,16519577.605455209
4162,14199365.105798258
4210,7291575.053690257
4236,157628111.2559404
4348,0.0
4473,204498.54549777436
2,2, 1, 2, 0,10, 0.00,60.00,Friday
11,331103319.1985238
47,146445347.28437544
71,72054947.28437549
346,74390399.99999988
993,143958059.99999995
1017,143958059.99999995
1497,67527873.40331158
1533,285108.16507584266
1557,285108.16507584266
2228,5950471.131907539
2366,2821106.4644564397
4114,30960754.52463441
4126,16582981.988604961
4162,14199365.105798258
4210,3544452.8789130409
4236,64421658.7737793
4348,45770.22436294372
4473,198463.15433056945
2,2, 1, 2, 0,11, 0.00,60.00,Friday
11,288402006.3766743
47,124569661.80468606
71,71628061.80468606
346,52941599.9999999
993,122509259.99999996
1017,122509259.99999996
1497,23614201.252512557
1533,513194.69713651677
1557,513194.69713651677
2228,7587206.763311807
2366,3017287.069718645
4114,31223873.758635709
4126,16719222.876972072
4162,14199365.105798258
4210,837406.6076844151
4236,20083719.485657395
4348,1476078.52001158
4473,198518.9223447967
2,2, 1, 2, 0,12, 0.00,60.00,Friday
11,298496938.58485928
47,124415840.25108058
71,71474240.2510806
346,52941599.9999999
993,122509259.99999996
1017,122509259.99999996
1497,19151366.667955128
1533,11952079.865633984
1557,11952079.865633984
2228,10389593.149331272
2366,3787372.5072787206
4114,32162878.92886256
4126,17014094.089436167
4162,14199365.105798258
4210,610.8705977238702
4236,3411914.295042423
4348,8819742.57341597
4473,199012.81157125557
2,2, 1, 2, 0,13, 0.00,60.00,Friday
11,304293332.9435261
47,124786763.69087944
71,71845163.69087947
346,52941599.9999999
993,122509259.99999996
1017,122509259.99999996
1497,19008985.790052434
1533,11952079.865633984
1557,11952079.865633984
2228,11998605.001770046
2366,4039266.4254980275
4114,32652130.730199387
4126,17480182.210202997
4162,14199365.105798258
4210,540.2794692408176
4236,3017639.498920422
4348,12147006.094589599
4473,199027.14661847079
2,2, 1, 2, 0,14, 0.00,60.00,Friday
11,307637239.5538982
47,126019477.03151682
71,73077877.03151685
346,52941599.9999999
993,122509259.99999996
1017,122509259.99999996
1497,7376470.254561115
1533,513194.69713651677
1557,513194.69713651677
2228,11386854.910346659
2366,4159164.8643858099
4114,32723693.04763175
4126,17869285.822695238
4162,14199365.105798258
4210,484.1451374579662
4236,2704110.6930387897
4348,14798431.560201997
4473,199038.85906363588
2,2, 1, 2, 0,15, 0.00,60.00,Friday
11,304641191.24662968
47,127408889.05549127
71,74467289.05549129
346,52941599.9999999
993,122509259.99999996
1017,122509259.99999996
1497,6272319.178862936
1533,427662.2476137639
1557,427662.2476137639
2228,9429002.439970015
2366,3330001.7961321996
4114,32726412.294371595
4126,18200080.27405511
4162,14199365.105798258
4210,450.2249331673803
4236,2514655.1351169727
4348,12368131.30860275
4473,199045.9232609973
2,2, 1, 2, 0,16, 0.00,60.00,Friday
11,299220690.21865609
47,129831650.30527154
71,76890050.30527157
346,52941599.9999999
993,122509259.99999996
1017,122509259.99999996
1497,5609807.533930333
1533,427662.2476137639
1557,427662.2476137639
2228,8030096.1613035299
2366,3041823.038691183
4114,33006013.514597618
4126,18781060.56328871
4162,14199365.105798258
4210,383.2042125525784
4236,2140322.2476253875
4348,5644226.289024628
4473,199060.7442463269
2,2, 1, 2, 0,17, 0.00,60.00,Friday
11,297434191.8112128
47,130541137.80124493
71,77599537.80124496
346,52941599.9999999
993,122509259.99999996
1017,122509259.99999996
1497,34872391.25523729
1533,29024875.168857416
1557,29024875.168857416
2228,8676896.51692946
2366,3396150.028060099
4114,32774179.508961284
4126,18574814.403163025
4162,14199365.105798258
4210,438.89362973204069
4236,2451366.0583197709
4348,2733231.4077075377
4473,199047.6827399278
2,2, 1, 2, 0,18, 0.00,60.00,Friday
11,285361569.2641696
47,123776342.99999996
71,70834742.99999997
346,52941599.9999999
993,118102859.99999997
1017,118102859.99999997
1497,35267560.12946389
1533,29024875.168857416
1557,29024875.168857416
2228,8555060.390739073
2366,3110560.8903501376
4114,32157997.349926376
4126,17958632.244128117
4162,14199365.105798258
4210,2570289.012288611
4236,3132124.0702563326
4348,0.0
4473,199019.51121561693
2,2, 1, 2, 0,19, 0.00,60.00,Friday
11,322507572.9716369
47,143344268.99999986
71,47505068.99999999
346,95839199.99999984
993,135564839.99999989
1017,135564839.99999989
1497,35804708.95457445
1533,28597212.921243654
1557,28597212.921243654
2228,7660854.376119155
2366,2589434.743621615
4114,31008672.7029194
4126,16761857.82918828
4162,14199365.105798258
4210,4495717.476522544
4236,4618061.289709178
4348,234260.54367375427
4473,198958.87240233864
2,2, 1, 2, 0,20, 0.00,60.00,Friday
11,380902870.3896408
47,171942668.99999974
71,47505068.99999999
346,124437599.9999998
993,164163239.99999974
1017,164163239.99999974
1497,10960734.42168039
1533,0.0
1557,0.0
2228,6680057.184077259
2366,2431765.7619488358
4114,31113817.35172577
4126,16601153.92857145
4162,14199365.105798258
4210,5257862.32212754
4236,8528968.659731554
4348,1546410.46594795
4473,198814.06576268987
2,2, 1, 2, 0,21, 0.00,60.00,Friday
11,396969113.4450551
47,180270629.9999997
71,41533829.999999988
346,138736799.9999998
993,169616699.99999974
1017,169616699.99999974
1497,20965532.275336304
1533,0.0
1557,0.0
2228,6390524.322364932
2366,2429473.8939067807
4114,31345573.895386317
4126,16534728.936471887
4162,14199365.105798258
4210,6129556.2666805009
4236,18536058.381429525
4348,3017614.8473165587
4473,198514.1133073051
2,2, 1, 2, 0,22, 0.00,60.00,Friday
11,313477663.53863766
47,143777915.9999998
71,19340315.999999998
346,124437599.9999998
993,132085079.9999998
1017,132085079.9999998
1497,1696099.718044163
1533,0.0
1557,0.0
2228,3653797.505579011
2366,1696099.718044163
4114,25215646.85602007
4126,10490501.918585619
4162,14199365.105798258
4210,6150678.448057016
4236,0.0
4348,2594544.728981836
4473,0.0
2,2, 1, 2, 0,23, 0.00,60.00,Friday
11,222826879.0095081
47,96788438.99999984
71,5971238.999999999
346,90817199.99999984
993,90768869.99999985
1017,90768869.99999985
1497,1338250.6299396018
1533,0.0
1557,0.0
2228,2520902.313731772
2366,1338250.6299396018
4114,24917125.68936196
4126,10490501.918585619
4162,14199365.105798258
4210,6710089.375317966
4236,0.0
4348,1121452.6310966763
4473,0.0
2,2, 1, 2, 0,24, 0.00,60.00,Friday
11,133392709.03147325
47,52754678.99999992
71,4835078.999999999
346,47919599.99999992
993,47320469.999999929
1017,47320469.999999929
1497,1307573.161275482
1533,0.0
1557,0.0
2228,1616087.5189850648
2366,1307573.161275482
4114,24689867.024383878
4126,10490501.918585619
4162,14199365.105798258
4210,7011605.488104359
4236,0.0
4348,0.0
4473,0.0
2,3, 1, 3, 0, 1, 0.00,60.00,Saturday
11,68017355.13353926
47,24156278.99999996
71,4835078.999999999
346,19321199.999999968
993,18722069.99999997
1017,18722069.99999997
1497,1326000.2829208147
1533,0.0
1557,0.0
2228,2481299.688128923
2366,1326000.2829208147
4114,22657706.445410395
4126,8458341.339612136
4162,14199365.105798258
4210,0.0
4236,0.0
4348,0.0
4473,0.0
2,3, 1, 3, 0, 2, 0.00,60.00,Saturday
11,67177485.58099357
47,24156278.99999996
71,4835078.999999999
346,19321199.999999968
993,18722069.99999997
1017,18722069.99999997
1497,1055505.1343539146
1533,0.0
1557,0.0
2228,1641430.1355832238
2366,1055505.1343539146
4114,22657706.445410395
4126,8458341.339612136
4162,14199365.105798258
4210,0.0
4236,0.0
4348,0.0
4473,0.0
2,3, 1, 3, 0, 3, 0.00,60.00,Saturday
11,67152358.5816915
47,24156278.99999996
71,4835078.999999999
346,19321199.999999968
993,18722069.99999997
1017,18722069.99999997
1497,1307532.8113984978
1533,0.0
1557,0.0
2228,1616303.1362811514
2366,1307532.8113984978
4114,22657706.445410395
4126,8458341.339612136
4162,14199365.105798258
4210,0.0
4236,0.0
4348,0.0
4473,0.0
2,3, 1, 3, 0, 4, 0.00,60.00,Saturday
11,66331828.05982453
47,24156278.99999996
71,4835078.999999999
346,19321199.999999968
993,18722069.99999997
1017,18722069.99999997
1497,1036289.4678976958
1533,0.0
1557,0.0
2228,795772.6144141889
2366,1036289.4678976958
4114,22657706.445410395
4126,8458341.339612136
4162,14199365.105798258
4210,0.0
4236,0.0
4348,0.0
4473,0.0
2,3, 1, 3, 0, 5, 0.00,60.00,Saturday
11,67127770.98208696
47,24156278.99999996
71,4835078.999999999
346,19321199.999999968
993,18722069.99999997
1017,18722069.99999997
1497,1036498.3812586977
1533,0.0
1557,0.0
2228,1591715.5366766225
2366,1036498.3812586977
4114,22657706.445410395
4126,8458341.339612136
4162,14199365.105798258
4210,0.0
4236,0.0
4348,0.0
4473,0.0
2,3, 1, 3, 0, 6, 0.00,60.00,Saturday
11,134211673.60522472
47,52754678.99999992
71,4835078.999999999
346,47919599.99999992
993,47320469.999999929
1017,47320469.999999929
1497,1303559.5053828839
1533,0.0
1557,0.0
2228,795995.3771081034
2366,1303559.5053828839
4114,24689867.024383878
4126,10490501.918585619
4162,14199365.105798258
4210,8650662.203732778
4236,0.0
4348,0.0
4473,0.0
2,3, 1, 3, 0, 7, 0.00,60.00,Saturday
11,192718408.3801661
47,80352823.9553328
71,5962423.955332918
346,74390399.99999988
993,69320069.9999999
1017,69320069.9999999
1497,209626417.2592733
1533,28597212.921243654
1557,28597212.921243654
2228,1604073.231271939
2366,1045253.8362716695
4114,32390964.78938944
4126,18042624.284409468
4162,14199365.105798258
4210,8751085.264464198
4236,179983950.50175796
4348,0.0
4473,299391.1397078379
2,3, 1, 3, 0, 8, 0.00,60.00,Saturday
11,200263603.77948473
47,83579619.65336955
71,9189219.653369673
346,74390399.99999988
993,73192139.99999988
1017,73192139.99999988
1497,194725957.5760821
1533,28597212.921243654
1557,28597212.921243654
2228,3560884.6259238917
2366,1682224.8956912989
4114,30767594.212320128
4126,16519780.093801156
4162,14199365.105798258
4210,8954924.906163354
4236,164446519.75914718
4348,0.0
4473,208440.38170788389
2,3, 1, 3, 0, 9, 0.00,60.00,Saturday
11,235528846.49208088
47,101466330.60550763
71,27075930.605507759
346,74390399.99999988
993,90883619.99999987
1017,90883619.99999987
1497,104950908.75899868
1533,285108.16507584266
1557,285108.16507584266
2228,4607959.776992163
2366,2019871.3182280544
4114,30782982.867012435
4126,16519577.605455209
4162,14199365.105798258
4210,7323456.155912498
4236,102645929.27569479
4348,264524.7197839632
4473,199972.36687227459
2,3, 1, 3, 0,10, 0.00,60.00,Saturday
11,278386286.7887869
47,118443660.81700571
71,44053260.81700584
346,74390399.99999988
993,114116039.99999988
1017,114116039.99999988
1497,35930648.271281179
1533,285108.16507584266
1557,285108.16507584266
2228,4733911.315954064
2366,2142349.2806711776
4114,31555505.006498174
4126,16563959.106763397
4162,14199365.105798258
4210,5426639.887731258
4236,33503190.82553415
4348,3912285.4199156046
4473,198244.34168221596
2,3, 1, 3, 0,11, 0.00,60.00,Saturday
11,283397042.4856839
47,117146722.40721673
71,64205122.40721676
346,52941599.9999999
993,115899659.99999997
1017,115899659.99999997
1497,24083373.97968825
1533,513194.69713651677
1557,513194.69713651677
2228,7743163.821471786
2366,2816915.6969147168
4114,32156643.636378886
4126,16742166.603537742
4162,14199365.105798258
4210,4248732.289660844
4236,20753263.585637019
4348,6003638.05887471
4473,198482.2720811029
2,3, 1, 3, 0,12, 0.00,60.00,Saturday
11,289472312.0428318
47,117568510.09124527
71,64626910.09124528
346,52941599.9999999
993,115899659.99999997
1017,115899659.99999997
1497,26409650.62605162
1533,11952079.865633984
1557,11952079.865633984
2228,10060352.13532351
2366,3172875.09925919
4114,33285063.928613619
4126,17220760.611808596
4162,14199365.105798258
4210,3246164.822969212
4236,11284695.661158443
4348,9213800.171412478
4473,198760.89326788704
2,3, 1, 3, 0,13, 0.00,60.00,Saturday
11,289377815.7203007
47,114277699.91164036
71,61336099.91164037
346,52941599.9999999
993,114247259.99999997
1017,114247259.99999997
1497,18088155.24460855
1533,11952079.865633984
1557,11952079.865633984
2228,11368204.24864179
2366,3510205.2476838428
4114,34333771.213693428
4126,17889108.741464016
4162,14199365.105798258
4210,3855523.106098643
4236,2625870.1312907256
4348,11096310.642665705
4473,199046.5975608528
2,3, 1, 3, 0,14, 0.00,60.00,Saturday
11,289369359.18002107
47,114316477.8160921
71,61374877.81609212
346,52941599.9999999
993,114247259.99999997
1017,114247259.99999997
1497,6303561.889285071
1533,513194.69713651677
1557,513194.69713651677
2228,11231542.431157137
2366,3504223.6245305819
4114,34964520.54245543
4126,18563210.695022026
4162,14199365.105798258
4210,3523118.0447092286
4236,2286143.567617973
4348,10887381.318382603
4473,199059.0272246974
2,3, 1, 3, 0,15, 0.00,60.00,Saturday
11,287822350.15760406
47,113545335.07800968
71,60603735.078009698
346,52941599.9999999
993,114247259.99999997
1017,114247259.99999997
1497,5362750.903403196
1533,427662.2476137639
1557,427662.2476137639
2228,8956853.127299015
2366,2867540.4283974778
4114,35676129.83041285
4126,19146591.898521119
4162,14199365.105798258
4210,3667618.276003979
4236,2067548.2273919546
4348,11530086.783500225
4473,199067.0623783318
2,3, 1, 3, 0,16, 0.00,60.00,Saturday
11,287608592.6620878
47,113330235.48523027
71,60388635.48523028
346,52941599.9999999
993,114247259.99999997
1017,114247259.99999997
1497,5165254.280204477
1533,427662.2476137639
1557,427662.2476137639
2228,8649644.925603653
2366,2771668.822047846
4114,36051458.04230108
4126,19520458.0060889
4162,14199365.105798258
4210,3587315.3939244148
4236,1965923.210542867
4348,11543608.173436566
4473,199070.6415918438
2,3, 1, 3, 0,17, 0.00,60.00,Saturday
11,285653856.67327597
47,117559010.33001672
71,64617410.330016728
346,52941599.9999999
993,114247259.99999997
1017,114247259.99999997
1497,33943053.03582017
1533,29024875.168857416
1557,29024875.168857416
2228,9235010.591252603
2366,2932223.0393760756
4114,34806297.47759313
4126,19550137.00606274
4162,14199365.105798258
4210,4373257.124638113
4236,1985954.8275866756
4348,5233951.711325087
4473,199069.43845040134
2,3, 1, 3, 0,18, 0.00,60.00,Saturday
11,272331861.33099386
47,111937382.99999996
71,64017782.99999998
346,47919599.99999992
993,113145659.99999997
1017,113145659.99999997
1497,33912766.13820918
1533,28597212.921243654
1557,28597212.921243654
2228,7990734.337257833
2366,2618399.068042808
4114,32875495.30892703
4126,18653831.07930053
4162,14199365.105798258
4210,6073092.702066554
4236,2697154.148922718
4348,110455.33447087946
4473,199040.64827172564
2,3, 1, 3, 0,19, 0.00,60.00,Saturday
11,300990016.8814471
47,128942549.99999987
71,38125349.999999988
346,90817199.99999984
993,125066699.99999988
1017,125066699.99999988
1497,60541302.53808099
1533,28597212.921243654
1557,28597212.921243654
2228,8514032.939933185
2366,2763624.146783031
4114,30842648.02626641
4126,16539281.89167686
4162,14199365.105798258
4210,6910606.451546478
4236,29180465.470054307
4348,515173.9842876305
4473,198305.47941361849
2,3, 1, 3, 0,20, 0.00,60.00,Saturday
11,319222089.93664398
47,142745273.9999998
71,23329673.999999994
346,119415599.9999998
993,138176819.9999998
1017,138176819.9999998
1497,36680949.12627782
1533,0.0
1557,0.0
2228,6568291.599726975
2366,2110477.2086274267
4114,29163950.828853717
4126,14487417.026481722
4162,14199365.105798258
4210,6189.512108969544
4236,34570471.91765039
4348,2363337.0918187305
4473,198226.90413596735
2,3, 1, 3, 0,21, 0.00,60.00,Saturday
11,349525872.0658057
47,157044473.99999977
71,23329673.999999994
346,133714799.99999979
993,152476019.99999977
1017,152476019.99999977
1497,47247001.13685158
1533,0.0
1557,0.0
2228,5781887.826757186
2366,2035175.6788833589
4114,29582316.152498746
4126,14487417.026481722
4162,14199365.105798258
4210,8094.744607690368
4236,45211825.45796822
4348,4434904.902483694
4473,198174.4394586784