Program Version,EnergyPlus, Version 9.0.1-bb7ca4f0da, YMD=2020.01.16 17:53
1,5,Environment Title[],Latitude[deg],Longitude[deg],Time Zone[],Elevation[m]
2,8,Day of Simulation[],Month[],Day of Month[],DST Indicator[1=yes 0=no],Hour[],StartMinute[],EndMinute[],DayType
3,5,Cumulative Day of Simulation[],Month[],Day of Month[],DST Indicator[1=yes 0=no],DayType  ! When Daily Meters Requested
4,2,Cumulative Days of Simulation[],Month[]  ! When Monthly Meters Requested
5,1,Cumulative Days of Simulation[] ! When Run Period Meters Requested
6,1,Calendar Year of Simulation[] ! When Annual Meters Requested
1497,1,Gas:Facility [J] !Hourly
4114,1,Fans:Electricity [J] !Hourly
47,1,InteriorLights:Electricity [J] !Hourly
11,1,Electricity:Facility [J] !Hourly
993,1,InteriorEquipment:Electricity [J] !Hourly
4483,1,Pumps:Electricity [J] !Hourly
4280,1,Heating:Electricity [J] !Hourly
4222,1,Cooling:Electricity [J] !Hourly
2228,1,WaterSystems:Electricity [J] !Hourly
1533,1,InteriorEquipment:Gas [J] !Hourly
2366,1,WaterSystems:Gas [J] !Hourly
4445,1,Heating:Gas [J] !Hourly
1017,1,Receptacle:InteriorEquipment:Electricity [J] !Hourly
1557,1,Receptacle:InteriorEquipment:Gas [J] !Hourly
71,1,ComplianceLtg:InteriorLights:Electricity [J] !Hourly
346,1,NonComplianceLtg:InteriorLights:Electricity [J] !Hourly
4126,1,General:Fans:Electricity [J] !Hourly
4162,1,ProcessMotors:Fans:Electricity [J] !Hourly
End of Data Dictionary
1,OAKLAND_724930_CZ2010,  37.72,-122.22,  -8.00,   2.00
2,1, 1, 1, 0, 1, 0.00,60.00,Holiday
11,66341734.27394022
47,24156278.99999996
71,4835078.999999999
346,19321199.999999968
993,18722069.99999997
1017,18722069.99999997
1497,1042785.2739396659
1533,0.0
1557,0.0
2228,805678.8285298817
2366,1042785.2739396659
4114,22657706.445410395
4126,8458341.339612136
4162,14199365.105798256
4222,0.0
4280,0.0
4445,0.0
4483,0.0
2,1, 1, 1, 0, 2, 0.00,60.00,Holiday
11,67147204.39189855
47,24156278.99999996
71,4835078.999999999
346,19321199.999999968
993,18722069.99999997
1017,18722069.99999997
1497,1042773.4128829227
1533,0.0
1557,0.0
2228,1611148.9464882045
2366,1042773.4128829227
4114,22657706.445410395
4126,8458341.339612136
4162,14199365.105798256
4222,0.0
4280,0.0
4445,0.0
4483,0.0
2,1, 1, 1, 0, 3, 0.00,60.00,Holiday
11,67147231.88105083
47,24156278.99999996
71,4835078.999999999
346,19321199.999999968
993,18722069.99999997
1017,18722069.99999997
1497,1303444.6649411242
1533,0.0
1557,0.0
2228,1611176.4356404823
2366,1303444.6649411242
4114,22657706.445410395
4126,8458341.339612136
4162,14199365.105798256
4222,0.0
4280,0.0
4445,0.0
4483,0.0
2,1, 1, 1, 0, 4, 0.00,60.00,Holiday
11,66337636.691555779
47,24156278.99999996
71,4835078.999999999
346,19321199.999999968
993,18722069.99999997
1017,18722069.99999997
1497,1037337.7968038314
1533,0.0
1557,0.0
2228,801581.246145438
2366,1037337.7968038314
4114,22657706.445410395
4126,8458341.339612136
4162,14199365.105798256
4222,0.0
4280,0.0
4445,0.0
4483,0.0
2,1, 1, 1, 0, 5, 0.00,60.00,Holiday
11,67238014.86380743
47,24156278.99999996
71,4835078.999999999
346,19321199.999999968
993,18722069.99999997
1017,18722069.99999997
1497,1037576.5064945298
1533,0.0
1557,0.0
2228,1595324.0417141966
2366,1037576.5064945298
4114,22673659.028825106
4126,8458341.339612136
4162,14199365.105798256
4222,0.0
4280,90682.79326818005
4445,0.0
4483,0.0
2,1, 1, 1, 0, 6, 0.00,60.00,Holiday
11,136622759.13117174
47,52754678.99999992
71,4835078.999999999
346,47919599.99999992
993,47320469.999999929
1017,47320469.999999929
1497,1305585.3162663535
1533,0.0
1557,0.0
2228,1598013.9496881725
2366,1305585.3162663535
4114,24693940.667591067
4126,10490501.918585619
4162,14199365.105798256
4222,0.0
4280,10255655.513892554
4445,0.0
4483,0.0
2,1, 1, 1, 0, 7, 0.00,60.00,Holiday
11,240206396.7669767
47,74203478.99999988
71,4835078.999999999
346,69368399.9999999
993,68769269.9999999
1017,68769269.9999999
1497,30614691.002419976
1533,28597212.921243654
1557,28597212.921243654
2228,805518.765298008
2366,1042752.7738689736
4114,37729916.03454984
4126,14985284.427965595
4162,14199365.105798256
4222,0.0
4280,58612215.28342865
4445,974725.3073073486
4483,85997.68370039592
2,1, 1, 1, 0, 8, 0.00,60.00,Holiday
11,210864151.3103671
47,74200608.60198428
71,4832208.601984404
346,69368399.9999999
993,68769269.9999999
1017,68769269.9999999
1497,30872113.113090237
1533,28597212.921243654
1557,28597212.921243654
2228,2478520.3819659466
2366,1323251.5848725576
4114,30842561.202753564
4126,12387165.269624437
4162,14199365.105798256
4222,0.0
4280,34524068.72287312
4445,951648.6069740258
4483,49122.40079030548
2,1, 1, 1, 0, 9, 0.00,60.00,Holiday
11,223788127.96071378
47,77865889.21631558
71,8497489.216315713
346,69368399.9999999
993,72641339.99999988
1017,72641339.99999988
1497,351345465.4381479
1533,0.0
1557,0.0
2228,2521552.7675888475
2366,1336869.920470788
4114,41195909.74999153
4126,23748473.87558305
4162,14199365.105798256
4222,0.0
4280,28715173.545816877
4445,350008595.5176771
4483,848262.6810009874
2,1, 1, 1, 0,10, 0.00,60.00,Holiday
11,214207699.1830474
47,77826450.95352715
71,8458050.95352728
346,69368399.9999999
993,72641339.99999988
1017,72641339.99999988
1497,263005479.58672539
1533,0.0
1557,0.0
2228,2565978.9161744017
2366,1350392.1185219838
4114,33767170.46985105
4126,16562513.92647964
4162,14199365.105798256
4222,0.0
4280,27126137.388975089
4445,261655087.4682034
4483,280621.4545198433
2,1, 1, 1, 0,11, 0.00,60.00,Holiday
11,222762975.14057873
47,78180106.1888814
71,30260506.18888143
346,47919599.99999992
993,74424959.99999996
1017,74424959.99999996
1497,172329658.99233813
1533,0.0
1557,0.0
2228,5915849.448074429
2366,2049062.7776849874
4114,34245092.366480138
4126,16491177.353292179
4162,14199365.105798256
4222,0.0
4280,29787711.80868633
4445,170280596.2146531
4483,209255.32845652689
2,1, 1, 1, 0,12, 0.00,60.00,Holiday
11,219756528.55361296
47,78099094.36329484
71,30179494.363294875
346,47919599.99999992
993,74424959.99999996
1017,74424959.99999996
1497,164850137.12833483
1533,11438885.168497468
1557,11438885.168497468
2228,6039404.01162164
2366,2380305.569949264
4114,33810067.65858662
4126,16491177.353292179
4162,14199365.105798256
4222,0.0
4280,27179818.182802835
4445,151030946.38988806
4483,203184.3373071092
2,1, 1, 1, 0,13, 0.00,60.00,Holiday
11,246895009.68770067
47,89011518.37661559
71,41091918.37661559
346,47919599.99999992
993,89913239.99999997
1017,89913239.99999997
1497,123102190.80894947
1533,11438885.168497468
1557,11438885.168497468
2228,7433390.825640833
2366,2423189.6551274599
4114,33654872.980250518
4126,16491177.353292179
4162,14199365.105798256
4222,0.0
4280,26683855.350741589
4445,109240115.98532455
4483,198132.15445219016
2,1, 1, 1, 0,14, 0.00,60.00,Holiday
11,244491513.10761059
47,89110754.24198337
71,41191154.241983387
346,47919599.99999992
993,89913239.99999997
1017,89913239.99999997
1497,94055346.74596912
1533,0.0
1557,0.0
2228,7434080.356762929
2366,2461126.380398294
4114,33321543.677519207
4126,16491177.353292179
4162,14199365.105798256
4222,0.0
4280,24514954.876230718
4445,91594220.36557083
4483,196939.955114417
2,1, 1, 1, 0,15, 0.00,60.00,Holiday
11,242364036.70979796
47,89163584.23438885
71,41243984.23438886
346,47919599.99999992
993,89913239.99999997
1017,89913239.99999997
1497,81521474.29400382
1533,0.0
1557,0.0
2228,6972552.6549997939
2366,2150647.973333755
4114,33107381.150862956
4126,16491177.353292179
4162,14199365.105798256
4222,0.0
4280,23010996.872129438
4445,79370826.32067007
4483,196281.79741706758
2,1, 1, 1, 0,16, 0.00,60.00,Holiday
11,238756970.32015849
47,89062012.1973739
71,41142412.19737391
346,47919599.99999992
993,89913239.99999997
1017,89913239.99999997
1497,78371535.44367433
1533,0.0
1557,0.0
2228,6605427.658257511
2366,2423529.8403540917
4114,32631837.506441427
4126,16491177.353292179
4162,14199365.105798256
4222,0.0
4280,20348282.856380814
4445,75948005.60332023
4483,196170.10170488904
2,1, 1, 1, 0,17, 0.00,60.00,Holiday
11,240088153.58602054
47,89627792.82797772
71,41708192.827977757
346,47919599.99999992
993,89913239.99999997
1017,89913239.99999997
1497,113211294.14700163
1533,28597212.921243654
1557,28597212.921243654
2228,7515357.736282972
2366,2451308.0481413996
4114,32564665.252851715
4126,16491177.353292179
4162,14199365.105798256
4222,0.0
4280,20270645.800592096
4445,82162773.17761657
4483,196451.96831609007
2,1, 1, 1, 0,18, 0.00,60.00,Holiday
11,216512215.74296306
47,78647111.99999994
71,30727511.99999999
346,47919599.99999992
993,74424959.99999996
1017,74424959.99999996
1497,155351214.08147223
1533,28597212.921243654
1557,28597212.921243654
2228,7273629.096382309
2366,2204035.2846406574
4114,32986823.492765298
4126,16491177.353292179
4162,14199365.105798256
4222,0.0
4280,22980483.802773294
4445,124549965.87558794
4483,199207.35104226386
2,1, 1, 1, 0,19, 0.00,60.00,Holiday
11,245242596.2311028
47,106749035.99999982
71,15931835.999999995
346,90817199.99999984
993,101834279.99999984
1017,101834279.99999984
1497,201946636.72056116
1533,28597212.921243654
1557,28597212.921243654
2228,4736727.2544577
2366,1912529.2749717155
4114,29111312.29714117
4126,14459016.774318694
4162,14199365.105798256
4222,0.0
4280,2605389.874572039
4445,171436894.52434577
4483,205850.80493211119
2,1, 1, 1, 0,20, 0.00,60.00,Holiday
11,271959133.0087567
47,124250678.9999998
71,4835078.999999999
346,119415599.9999998
993,118816469.99999982
1017,118816469.99999982
1497,2026574.5560029918
1533,0.0
1557,0.0
2228,5798761.900242655
2366,2026574.5560029918
4114,22722859.246475348
4126,8458341.339612136
4162,14199365.105798256
4222,0.0
4280,370362.8620389801
4445,0.0
4483,0.0
2,1, 1, 1, 0,21, 0.00,60.00,Holiday
11,298547706.5728775
47,138549878.9999998
71,4835078.999999999
346,133714799.99999979
993,133115669.99999979
1017,133115669.99999979
1497,1681066.1083063633
1533,0.0
1557,0.0
2228,3999135.2152957899
2366,1681066.1083063633
4114,22691413.55607687
4126,8458341.339612136
4162,14199365.105798256
4222,0.0
4280,191608.8015051654
4445,0.0
4483,0.0
2,1, 1, 1, 0,22, 0.00,60.00,Holiday
11,269417553.8533845
47,124250678.9999998
71,4835078.999999999
346,119415599.9999998
993,118816469.99999982
1017,118816469.99999982
1497,1648623.1441996054
1533,0.0
1557,0.0
2228,3147101.6074345058
2366,1648623.1441996054
4114,22739261.080499364
4126,8458341.339612136
4162,14199365.105798256
4222,0.0
4280,464042.16545095018
4445,0.0
4483,0.0
2,1, 1, 1, 0,23, 0.00,60.00,Holiday
11,211006547.22653205
47,95652278.99999984
71,4835078.999999999
346,90817199.99999984
993,90218069.99999985
1017,90218069.99999985
1497,1323208.2452582294
1533,0.0
1557,0.0
2228,2478491.781121912
2366,1323208.2452582294
4114,22657706.445410395
4126,8458341.339612136
4162,14199365.105798256
4222,0.0
4280,0.0
4445,0.0
4483,0.0
2,1, 1, 1, 0,24, 0.00,60.00,Holiday
11,123531798.08580128
47,52754678.99999992
71,4835078.999999999
346,47919599.99999992
993,47320469.999999929
1017,47320469.999999929
1497,1037753.0240285745
1533,0.0
1557,0.0
2228,798942.6403909114
2366,1037753.0240285745
4114,22657706.445410395
4126,8458341.339612136
4162,14199365.105798256
4222,0.0
4280,0.0
4445,0.0
4483,0.0
2,2, 1, 2, 0, 1, 0.00,60.00,Friday
11,66322096.68585872
47,24156278.99999996
71,4835078.999999999
346,19321199.999999968
993,18722069.99999997
1017,18722069.99999997
1497,1029500.6234599263
1533,0.0
1557,0.0
2228,786041.2404483759
2366,1029500.6234599263
4114,22657706.445410395
4126,8458341.339612136
4162,14199365.105798256
4222,0.0
4280,0.0
4445,0.0
4483,0.0
2,2, 1, 2, 0, 2, 0.00,60.00,Friday
11,67243224.04157976
47,24156278.99999996
71,4835078.999999999
346,19321199.999999968
993,18722069.99999997
1017,18722069.99999997
1497,1034716.2785020794
1533,0.0
1557,0.0
2228,1584873.388911027
2366,1034716.2785020794
4114,22676840.816154336
4126,8458341.339612136
4162,14199365.105798256
4222,0.0
4280,103160.83651445812
4445,0.0
4483,0.0
2,2, 1, 2, 0, 3, 0.00,60.00,Friday
11,67345465.64255594
47,24156278.99999996
71,4835078.999999999
346,19321199.999999968
993,18722069.99999997
1017,18722069.99999997
1497,1034873.7295561592
1533,0.0
1557,0.0
2228,792426.7519833514
2366,1034873.7295561592
4114,22815849.99168096
4126,8458341.339612136
4162,14199365.105798256
4222,0.0
4280,858839.898891683
4445,0.0
4483,0.0
2,2, 1, 2, 0, 4, 0.00,60.00,Friday
11,71023921.67369986
47,24156278.99999996
71,4835078.999999999
346,19321199.999999968
993,18722069.99999997
1017,18722069.99999997
1497,1029891.8800110279
1533,0.0
1557,0.0
2228,785941.1309809075
2366,1029891.8800110279
4114,23397805.611300567
4126,8458341.339612136
4162,14199365.105798256
4222,0.0
4280,3961825.93141843
4445,0.0
4483,0.0
2,2, 1, 2, 0, 5, 0.00,60.00,Friday
11,74787105.6219708
47,24156278.99999996
71,4835078.999999999
346,19321199.999999968
993,18722069.99999997
1017,18722069.99999997
1497,1029912.5005575317
1533,0.0
1557,0.0
2228,785990.6453475889
2366,1029912.5005575317
4114,23988772.310225078
4126,8458341.339612136
4162,14199365.105798256
4222,0.0
4280,7133993.666398188
4445,0.0
4483,0.0
2,2, 1, 2, 0, 6, 0.00,60.00,Friday
11,159976414.45975713
47,53890838.99999992
71,5971238.999999999
346,47919599.99999992
993,47871269.999999929
1017,47871269.999999929
1497,1728326.8853053267
1533,0.0
1557,0.0
2228,786095.7915855768
2366,1295227.9448688294
4114,29507507.121848719
4126,14276035.158608068
4162,14199365.105798256
4222,0.0
4280,27822390.91647693
4445,433098.94043649735
4483,98311.62984594463
2,2, 1, 2, 0, 7, 0.00,60.00,Friday
11,333924465.9126986
47,80361638.99999988
71,5971238.999999999
346,74390399.99999988
993,69320069.9999999
1017,69320069.9999999
1497,444954794.51702347
1533,28597212.921243654
1557,28597212.921243654
2228,786127.6732439505
2366,1034058.869955945
4114,57426015.006830278
4126,24172334.056845029
4162,14199365.105798256
4222,0.0
4280,124944306.10561365
4445,415323522.7258239
4483,1086308.1270110093
2,2, 1, 2, 0, 8, 0.00,60.00,Friday
11,300834861.9109333
47,95991532.16376847
71,21601132.163768598
346,74390399.99999988
993,83139479.99999988
1017,83139479.99999988
1497,345698241.4684374
1533,28882321.086319496
1557,28882321.086319496
2228,3453079.954825044
2366,1686204.142512988
4114,40980385.29211572
4126,16537725.044493664
4162,14199365.105798256
4222,0.0
4280,76945012.72677002
4445,315129716.2396049
4483,325371.77345415097
2,2, 1, 2, 0, 9, 0.00,60.00,Friday
11,340368643.0208336
47,125950306.21617292
71,51559906.216173049
346,74390399.99999988
993,112981499.99999987
1017,112981499.99999987
1497,230699372.67057956
1533,285108.16507584266
1557,285108.16507584266
2228,4650331.742651542
2366,2444634.78525334
4114,38408748.77985505
4126,16491177.353292179
4162,14199365.105798256
4222,0.0
4280,58147863.62942209
4445,227969629.7202504
4483,229892.65273200364
2,2, 1, 2, 0,10, 0.00,60.00,Friday
11,386421309.4335208
47,151016199.23281855
71,76625799.23281859
346,74390399.99999988
993,143958059.99999995
1017,143958059.99999995
1497,153178543.56487293
1533,285108.16507584266
1557,285108.16507584266
2228,6109395.475430352
2366,2890307.5466270635
4114,37171499.411509308
4126,16543876.391250162
4162,14199365.105798256
4222,0.0
4280,47959891.33596573
4445,150003127.85317
4483,206263.9777968908
2,2, 1, 2, 0,11, 0.00,60.00,Friday
11,347994859.41951456
47,128511487.69860499
71,75569887.69860502
346,52941599.9999999
993,122509259.99999996
1017,122509259.99999996
1497,147432933.0520201
1533,513194.69713651677
1557,513194.69713651677
2228,8708084.20953438
2366,3146958.849825092
4114,37649173.30738751
4126,16584232.40326157
4162,14199365.105798256
4222,0.0
4280,50411797.78961049
4445,143772779.5050585
4483,205056.41437719129
2,2, 1, 2, 0,12, 0.00,60.00,Friday
11,345844385.5462811
47,128753614.52573964
71,75812014.52573966
346,52941599.9999999
993,122509259.99999996
1017,122509259.99999996
1497,144292952.7527364
1533,11952079.865633984
1557,11952079.865633984
2228,11415575.546885606
2366,3963330.557178908
4114,37099948.45112876
4126,16811247.4633796
4162,14199365.105798256
4222,0.0
4280,45863946.40727107
4445,128377542.32992351
4483,202040.61525610797
2,2, 1, 2, 0,13, 0.00,60.00,Friday
11,331707277.41642907
47,126635535.36213184
71,73693935.36213187
346,52941599.9999999
993,122509259.99999996
1017,122509259.99999996
1497,123047377.48505734
1533,11952079.865633984
1557,11952079.865633984
2228,12178145.182176482
2366,4627787.650541599
4114,35298029.45378874
4126,16882759.593199079
4162,14199365.105798256
4222,0.0
4280,34887518.4318555
4445,106467509.96888176
4483,198788.98647649089
2,2, 1, 2, 0,14, 0.00,60.00,Friday
11,325635597.1290933
47,127085063.96226895
71,74143463.96226897
346,52941599.9999999
993,122509259.99999996
1017,122509259.99999996
1497,98339800.20899144
1533,513194.69713651677
1557,513194.69713651677
2228,12937228.50140869
2366,4250996.171237938
4114,34295763.42318879
4126,16923088.297363566
4162,14199365.105798256
4222,0.0
4280,28610860.287843154
4445,93575609.34061697
4483,197420.95438384726
2,2, 1, 2, 0,15, 0.00,60.00,Friday
11,320385475.0135386
47,127508596.39647734
71,74566996.39647736
346,52941599.9999999
993,122509259.99999996
1017,122509259.99999996
1497,98686536.21572565
1533,427662.2476137639
1557,427662.2476137639
2228,10051743.13591682
2366,3616814.257742628
4114,33916213.82880341
4126,16975999.85011226
4162,14199365.105798256
4222,0.0
4280,26202222.112144069
4445,94642059.71036926
4483,197439.54019702468
2,2, 1, 2, 0,16, 0.00,60.00,Friday
11,308096837.2790532
47,125070133.52972892
71,72128533.52972894
346,52941599.9999999
993,122509259.99999996
1017,122509259.99999996
1497,93438779.23849678
1533,427662.2476137639
1557,427662.2476137639
2228,8601792.072311892
2366,3136961.620112166
4114,33064103.55278913
4126,17298898.207558194
4162,14199365.105798256
4222,0.0
4280,18654419.66255228
4445,89874155.37077084
4483,197128.46167105807
2,2, 1, 2, 0,17, 0.00,60.00,Friday
11,311529996.89086666
47,129184810.27662225
71,76243210.2766223
346,52941599.9999999
993,122509259.99999996
1017,122509259.99999996
1497,125101722.28967953
1533,29024875.168857416
1557,29024875.168857416
2228,9206360.784134902
2366,3625695.145126351
4114,32886651.002704376
4126,17237482.675916889
4162,14199365.105798256
4222,0.0
4280,17545644.269781338
4445,92451151.97569576
4483,197270.55762389827
2,2, 1, 2, 0,18, 0.00,60.00,Friday
11,310294965.64549496
47,123776342.99999996
71,70834742.99999997
346,52941599.9999999
993,118102859.99999997
1017,118102859.99999997
1497,132985545.70278636
1533,29024875.168857416
1557,29024875.168857416
2228,9670526.58150229
2366,3156996.000353707
4114,33575057.6643495
4126,16926249.207505987
4162,14199365.105798256
4222,0.0
4280,24972183.832062976
4445,100803674.53357524
4483,197994.5675803131
2,2, 1, 2, 0,19, 0.00,60.00,Friday
11,335548739.27763637
47,143344268.99999986
71,47505068.99999999
346,95839199.99999984
993,135564839.99999989
1017,135564839.99999989
1497,148288880.52760316
1533,28597212.921243654
1557,28597212.921243654
2228,8574692.30402741
2366,2934143.3955529315
4114,31700684.300776986
4126,16657052.533016433
4162,14199365.105798256
4222,0.0
4280,16164430.91417998
4445,116757524.21080655
4483,199822.75865225658
2,2, 1, 2, 0,20, 0.00,60.00,Friday
11,386968065.82079449
47,171942668.99999974
71,47505068.99999999
346,124437599.9999998
993,164163239.99999974
1017,164163239.99999974
1497,121248466.62309703
1533,0.0
1557,0.0
2228,6712798.69980083
2366,2478399.0918581236
4114,30970833.699543723
4126,16523612.705586873
4162,14199365.105798256
4222,0.0
4280,12978292.644555854
4445,118770067.53123889
4483,200231.7768944734
2,2, 1, 2, 0,21, 0.00,60.00,Friday
11,401449463.9521697
47,180270629.9999997
71,41533829.999999988
346,138736799.9999998
993,169616699.99999974
1017,169616699.99999974
1497,138519436.46599419
1533,0.0
1557,0.0
2228,7125122.073592374
2366,2491495.044106256
4114,30912801.578468626
4126,16491177.353292179
4162,14199365.105798256
4222,0.0
4280,13321328.740018305
4445,136027941.42188794
4483,202881.5600907401
2,2, 1, 2, 0,22, 0.00,60.00,Friday
11,320597719.82644799
47,143777915.9999998
71,19340315.999999998
346,124437599.9999998
993,132085079.9999998
1017,132085079.9999998
1497,1988013.8796055085
1533,0.0
1557,0.0
2228,4714094.687592175
2366,1988013.8796055085
4114,25091746.939905768
4126,10490501.918585619
4162,14199365.105798256
4222,0.0
4280,14928882.198950423
4445,0.0
4483,0.0
2,2, 1, 2, 0,23, 0.00,60.00,Friday
11,230156328.07138694
47,96788438.99999984
71,5971238.999999999
346,90817199.99999984
993,90768869.99999985
1017,90768869.99999985
1497,1346732.4603314996
1533,0.0
1557,0.0
2228,2543780.8000005169
2366,1346732.4603314996
4114,24689867.024383874
4126,10490501.918585619
4162,14199365.105798256
4222,0.0
4280,15365371.247002786
4445,0.0
4483,0.0
2,2, 1, 2, 0,24, 0.00,60.00,Friday
11,140767852.74118103
47,52754678.99999992
71,4835078.999999999
346,47919599.99999992
993,47320469.999999929
1017,47320469.999999929
1497,1312701.8896057474
1533,0.0
1557,0.0
2228,1624765.8646957246
2366,1312701.8896057474
4114,24689867.024383874
4126,10490501.918585619
4162,14199365.105798256
4222,0.0
4280,14378070.852101468
4445,0.0
4483,0.0
2,3, 1, 3, 0, 1, 0.00,60.00,Saturday
11,67202927.77658907
47,24156278.99999996
71,4835078.999999999
346,19321199.999999968
993,18722069.99999997
1017,18722069.99999997
1497,1332808.179076148
1533,0.0
1557,0.0
2228,1666872.331178734
2366,1332808.179076148
4114,22657706.445410395
4126,8458341.339612136
4162,14199365.105798256
4222,0.0
4280,0.0
4445,0.0
4483,0.0
2,3, 1, 3, 0, 2, 0.00,60.00,Saturday
11,68495057.13619255
47,24156278.99999996
71,4835078.999999999
346,19321199.999999968
993,18722069.99999997
1017,18722069.99999997
1497,1326095.6175812144
1533,0.0
1557,0.0
2228,2478625.505245758
2366,1326095.6175812144
4114,22733636.045613126
4126,8458341.339612136
4162,14199365.105798256
4222,0.0
4280,404446.5853337154
4445,0.0
4483,0.0
2,3, 1, 3, 0, 3, 0.00,60.00,Saturday
11,70385232.7794447
47,24156278.99999996
71,4835078.999999999
346,19321199.999999968
993,18722069.99999997
1017,18722069.99999997
1497,1050172.9579306227
1533,0.0
1557,0.0
2228,1624893.8583371985
2366,1050172.9579306227
4114,23168839.002465335
4126,8458341.339612136
4162,14199365.105798256
4222,0.0
4280,2713150.918642201
4445,0.0
4483,0.0
2,3, 1, 3, 0, 4, 0.00,60.00,Saturday
11,74686835.88648016
47,24156278.99999996
71,4835078.999999999
346,19321199.999999968
993,18722069.99999997
1017,18722069.99999997
1497,1299810.53632012
1533,0.0
1557,0.0
2228,798959.6300518145
2366,1299810.53632012
4114,23987104.761376233
4126,8458341.339612136
4162,14199365.105798256
4222,0.0
4280,7022422.4950521769
4445,0.0
4483,0.0
2,3, 1, 3, 0, 5, 0.00,60.00,Saturday
11,95366779.19956571
47,24156278.99999996
71,4835078.999999999
346,19321199.999999968
993,18722069.99999997
1017,18722069.99999997
1497,1039929.9598161073
1533,0.0
1557,0.0
2228,1598131.206336049
2366,1039929.9598161073
4114,26747719.953606979
4126,8458341.339612136
4162,14199365.105798256
4222,0.0
4280,24142579.03962273
4445,0.0
4483,0.0
2,3, 1, 3, 0, 6, 0.00,60.00,Saturday
11,208158127.78491036
47,52754678.99999992
71,4835078.999999999
346,47919599.99999992
993,47320469.999999929
1017,47320469.999999929
1497,1128458.8206945006
1533,0.0
1557,0.0
2228,1598049.4255027096
2366,1128458.8206945006
4114,29442649.57831186
4126,10490501.918585619
4162,14199365.105798256
4222,0.0
4280,77042279.78109585
4445,0.0
4483,0.0
2,3, 1, 3, 0, 7, 0.00,60.00,Saturday
11,585937441.6722434
47,80361638.99999988
71,5971238.999999999
346,74390399.99999988
993,69320069.9999999
1017,69320069.9999999
1497,496203531.6023247
1533,28597212.921243654
1557,28597212.921243654
2228,805589.8807595791
2366,1230184.3615768904
4114,70808064.02251448
4126,23332271.844567636
4162,14199365.105798256
4222,0.0
4280,363473410.2407907
4445,466376134.3195042
4483,1168668.5281785876
2,3, 1, 3, 0, 8, 0.00,60.00,Saturday
11,406908812.9077556
47,83860253.48264241
71,9469853.482642539
346,74390399.99999988
993,73192139.99999988
1017,73192139.99999988
1497,420178370.5369123
1533,28597212.921243654
1557,28597212.921243654
2228,4516601.215137216
2366,1822508.0810497057
4114,54965452.95490864
4126,16512797.794979364
4162,14199365.105798256
4222,0.0
4280,189838243.61152558
4445,389758649.534619
4483,536121.6435419252
2,3, 1, 3, 0, 9, 0.00,60.00,Saturday
11,396618315.212186
47,100642018.34133214
71,26251618.341332277
346,74390399.99999988
993,90883619.99999987
1017,90883619.99999987
1497,349121619.23956266
1533,285108.16507584266
1557,285108.16507584266
2228,4692587.348750949
2366,2146681.3618344964
4114,48340339.21884541
4126,16491177.353292179
4162,14199365.105798256
4222,0.0
4280,151635147.97073988
4445,346689829.71265229
4483,424602.33251768516
2,3, 1, 3, 0,10, 0.00,60.00,Saturday
11,387976347.91775998
47,117949742.33877564
71,43559342.33877577
346,74390399.99999988
993,114116039.99999988
1017,114116039.99999988
1497,256597484.46826674
1533,285108.16507584266
1557,285108.16507584266
2228,5801094.082429443
2366,2181767.214635999
4114,41049976.03787591
4126,16543763.829585026
4162,14199365.105798256
4222,0.0
4280,108776080.34919447
4445,254130609.08855493
4483,283415.1094845974
2,3, 1, 3, 0,11, 0.00,60.00,Saturday
11,321956238.8927474
47,116599545.1543282
71,63657945.15432821
346,52941599.9999999
993,115899659.99999997
1017,115899659.99999997
1497,182272422.0023399
1533,513194.69713651677
1557,513194.69713651677
2228,7962219.081362675
2366,2957549.860122057
4114,35341760.88262531
4126,16638725.517130347
4162,14199365.105798256
4222,0.0
4280,45933942.62987992
4445,178801677.44508133
4483,219111.1445513918
2,3, 1, 3, 0,12, 0.00,60.00,Saturday
11,306996245.3248256
47,116592428.91550747
71,63650828.91550749
346,52941599.9999999
993,115899659.99999997
1017,115899659.99999997
1497,161607775.61064116
1533,11952079.865633984
1557,11952079.865633984
2228,10913697.322819278
2366,3596954.3706345597
4114,33921119.14868473
4126,16889466.54298772
4162,14199365.105798256
4222,0.0
4280,29463143.341392444
4445,146058741.3743726
4483,206196.59642175726
2,3, 1, 3, 0,13, 0.00,60.00,Saturday
11,295270476.54309406
47,113148184.77195104
71,60206584.77195105
346,52941599.9999999
993,114247259.99999997
1017,114247259.99999997
1497,139836128.55838595
1533,11952079.865633984
1557,11952079.865633984
2228,12454460.699567896
2366,3608773.8790845426
4114,33028793.877051567
4126,16970060.731124954
4162,14199365.105798256
4222,0.0
4280,22190271.154049197
4445,124275274.81366742
4483,201506.04047440727
2,3, 1, 3, 0,14, 0.00,60.00,Saturday
11,290284318.8280859
47,113130024.12172708
71,60188424.12172711
346,52941599.9999999
993,114247259.99999997
1017,114247259.99999997
1497,120623164.86330475
1533,513194.69713651677
1557,513194.69713651677
2228,11539955.628177133
2366,3608117.198942231
4114,32498626.742391558
4126,17025251.726936476
4162,14199365.105798256
4222,4743.8770341271269
4280,18663644.410284364
4445,116501852.967226
4483,200064.04847169418
2,3, 1, 3, 0,15, 0.00,60.00,Saturday
11,286800362.9023505
47,113119986.36583549
71,60178386.3658355
346,52941599.9999999
993,114247259.99999997
1017,114247259.99999997
1497,113862281.13321436
1533,427662.2476137639
1557,427662.2476137639
2228,9914397.892758485
2366,3222563.537179569
4114,32409919.942201199
4126,17235528.938939766
4162,14199365.105798256
4222,224510.34803375757
4280,16685039.602856506
4445,110212055.34842104
4483,199248.75066521398
2,3, 1, 3, 0,16, 0.00,60.00,Saturday
11,285617986.8746586
47,113442830.99238713
71,60501230.992387149
346,52941599.9999999
993,114247259.99999997
1017,114247259.99999997
1497,94690232.71803838
1533,427662.2476137639
1557,427662.2476137639
2228,9787355.645569798
2366,3013466.9523717307
4114,32528501.43452599
4126,17543241.291618173
4162,14199365.105798256
4222,285031.1502167321
4280,15129586.20784204
4445,91249103.51805289
4483,197421.44411693933
2,3, 1, 3, 0,17, 0.00,60.00,Saturday
11,291889876.0731742
47,118470868.19375496
71,65529268.19375498
346,52941599.9999999
993,114247259.99999997
1017,114247259.99999997
1497,124415998.83695586
1533,29024875.168857416
1557,29024875.168857416
2228,9664459.578140162
2366,3011018.9853429396
4114,32806474.405548686
4126,17653712.95672117
4162,14199365.105798256
4222,6887.868964316203
4280,16496558.111039505
4445,92380104.6827555
4483,197367.9157266375
2,3, 1, 3, 0,18, 0.00,60.00,Saturday
11,289127981.63356479
47,111937382.99999996
71,64017782.99999998
346,47919599.99999992
993,113145659.99999997
1017,113145659.99999997
1497,145246853.88900898
1533,28597212.921243654
1557,28597212.921243654
2228,9490951.771222907
2366,2813558.532966159
4114,33000068.424944156
4126,17085272.088873496
4162,14199365.105798256
4222,0.0
4280,21354414.903792718
4445,113836082.43479917
4483,199503.53360519088
2,3, 1, 3, 0,19, 0.00,60.00,Saturday
11,310374628.63832667
47,128942549.99999987
71,38125349.999999988
346,90817199.99999984
993,125066699.99999988
1017,125066699.99999988
1497,167426240.06775014
1533,28597212.921243654
1557,28597212.921243654
2228,8199095.951968715
2366,2697069.7175335406
4114,31435059.43473123
4126,16491503.48200192
4162,14199365.105798256
4222,0.0
4280,16528010.191707276
4445,136131957.42897294
4483,203213.05991961988
2,3, 1, 3, 0,20, 0.00,60.00,Saturday
11,319152041.99422636
47,142745273.9999998
71,23329673.999999994
346,119415599.9999998
993,138176819.9999998
1017,138176819.9999998
1497,181380569.80012048
1533,0.0
1557,0.0
2228,7433598.469013166
2366,2456176.3504815076
4114,28951201.555607603
4126,14459016.774318694
4162,14199365.105798256
4222,0.0
4280,1632836.6455186969
4445,178924393.44963894
4483,212311.324087159
2,3, 1, 3, 0,21, 0.00,60.00,Saturday
11,348496670.0465116
47,157044473.99999977
71,23329673.999999994
346,133714799.99999979
993,152476019.99999977
1017,152476019.99999977
1497,237474187.29907144
1533,0.0
1557,0.0
2228,5917655.004151948
2366,2064128.4982858687
4114,29278252.706360386
4126,14459016.774318694
4162,14199365.105798256
4222,0.0
4280,3540669.090552595
4445,235410058.80078555
4483,239599.24544695056
2,3, 1, 3, 0,22, 0.00,60.00,Saturday
11,299340956.0445804
47,127949597.9999998
71,8533997.999999999
346,119415599.9999998
993,122688539.9999998
1017,122688539.9999998
1497,289757785.2235348
1533,0.0
1557,0.0
2228,4602495.061932783
2366,1995448.5343825953