Program Version,EnergyPlus, Version 9.0.1-bb7ca4f0da, YMD=2019.12.17 18:18
1,5,Environment Title[],Latitude[deg],Longitude[deg],Time Zone[],Elevation[m]
2,8,Day of Simulation[],Month[],Day of Month[],DST Indicator[1=yes 0=no],Hour[],StartMinute[],EndMinute[],DayType
3,5,Cumulative Day of Simulation[],Month[],Day of Month[],DST Indicator[1=yes 0=no],DayType  ! When Daily Meters Requested
4,2,Cumulative Days of Simulation[],Month[]  ! When Monthly Meters Requested
5,1,Cumulative Days of Simulation[] ! When Run Period Meters Requested
6,1,Calendar Year of Simulation[] ! When Annual Meters Requested
1017,1,Receptacle:InteriorEquipment:Electricity [J] !Hourly
2366,1,WaterSystems:Gas [J] !Hourly
1557,1,Receptacle:InteriorEquipment:Gas [J] !Hourly
47,1,InteriorLights:Electricity [J] !Hourly
1497,1,Gas:Facility [J] !Hourly
11,1,Electricity:Facility [J] !Hourly
993,1,InteriorEquipment:Electricity [J] !Hourly
2228,1,WaterSystems:Electricity [J] !Hourly
4473,1,Pumps:Electricity [J] !Hourly
4114,1,Fans:Electricity [J] !Hourly
4210,1,Heating:Electricity [J] !Hourly
4348,1,Cooling:Electricity [J] !Hourly
1533,1,InteriorEquipment:Gas [J] !Hourly
4236,1,Heating:Gas [J] !Hourly
4162,1,ProcessMotors:Fans:Electricity [J] !Hourly
71,1,ComplianceLtg:InteriorLights:Electricity [J] !Hourly
346,1,NonComplianceLtg:InteriorLights:Electricity [J] !Hourly
4126,1,General:Fans:Electricity [J] !Hourly
End of Data Dictionary
1,PALMDALE_723820_CZ2010,  34.63,-118.08,  -8.00, 769.00
2,1, 1, 1, 0, 1, 0.00,60.00,Holiday
11,66343092.18483513
47,24156278.99999996
71,4835078.999999999
346,19321199.999999968
993,18722069.99999997
1017,18722069.99999997
1497,1044096.7992624821
1533,0.0
1557,0.0
2228,807036.739424796
2366,1044096.7992624821
4114,22657706.44541039
4126,8458341.339612136
4162,14199365.105798254
4210,0.0
4236,0.0
4348,0.0
4473,0.0
2,1, 1, 1, 0, 2, 0.00,60.00,Holiday
11,67149921.92555039
47,24156278.99999996
71,4835078.999999999
346,19321199.999999968
993,18722069.99999997
1017,18722069.99999997
1497,1044107.0623287229
1533,0.0
1557,0.0
2228,1613866.4801400519
2366,1044107.0623287229
4114,22657706.44541039
4126,8458341.339612136
4162,14199365.105798254
4210,0.0
4236,0.0
4348,0.0
4473,0.0
2,1, 1, 1, 0, 3, 0.00,60.00,Holiday
11,67160150.92157527
47,24156278.99999996
71,4835078.999999999
346,19321199.999999968
993,18722069.99999997
1017,18722069.99999997
1497,1535603.9282216379
1533,0.0
1557,0.0
2228,1613906.6873373443
2366,1305263.2067899716
4114,22667895.23423798
4126,8458341.339612136
4162,14199365.105798256
4210,0.0
4236,230340.72143166635
4348,0.0
4473,0.0
2,1, 1, 1, 0, 4, 0.00,60.00,Holiday
11,67203379.94293623
47,24156278.99999996
71,4835078.999999999
346,19321199.999999968
993,18722069.99999997
1017,18722069.99999997
1497,2555831.277592879
1533,0.0
1557,0.0
2228,1600216.9262653595
2366,1038712.4844365936
4114,22724814.016670936
4126,8458341.339612136
4162,14199365.105798254
4210,0.0
4236,1517118.7931562849
4348,0.0
4473,0.0
2,1, 1, 1, 0, 5, 0.00,60.00,Holiday
11,66537060.38827805
47,24156278.99999996
71,4835078.999999999
346,19321199.999999968
993,18722069.99999997
1017,18722069.99999997
1497,5579039.630130221
1533,0.0
1557,0.0
2228,800176.1753032714
2366,1038851.7077079964
4114,22858535.21297485
4126,8458341.339612136
4162,14199365.105798254
4210,0.0
4236,4540187.922422226
4348,0.0
4473,0.0
2,1, 1, 1, 0, 6, 0.00,60.00,Holiday
11,138350685.3831354
47,52754678.99999992
71,4835078.999999999
346,47919599.99999992
993,47320469.999999929
1017,47320469.999999929
1497,5139643.741654342
1533,0.0
1557,0.0
2228,1600472.3312512604
2366,1306939.092881977
4114,24859401.2652152
4126,10490501.918585619
4162,14199365.105798254
4210,11815662.78666901
4236,3832704.6487723647
4348,0.0
4473,0.0
2,1, 1, 1, 0, 7, 0.00,60.00,Holiday
11,196241664.2277285
47,74203478.99999988
71,4835078.999999999
346,69368399.9999999
993,68769269.9999999
1017,68769269.9999999
1497,376984189.9710506
1533,28597212.921243654
1557,28597212.921243654
2228,1613767.6672600446
2366,1044194.5085818332
4114,40054088.01196769
4126,10490501.91858562
4162,14199365.105798254
4210,11601059.548500944
4236,347342782.54122516
4348,0.0
4473,0.0
2,1, 1, 1, 0, 8, 0.00,60.00,Holiday
11,188552633.5724659
47,74193396.8068998
71,4824996.806899916
346,69368399.9999999
993,68769269.9999999
1017,68769269.9999999
1497,211218957.59738458
1533,28597212.921243654
1557,28597212.921243654
2228,1656310.142777339
2366,1325364.22936384
4114,32709258.403114499
4126,10490501.918585619
4162,14199365.105798254
4210,11224398.219674349
4236,181296380.44677706
4348,0.0
4473,0.0
2,1, 1, 1, 0, 9, 0.00,60.00,Holiday
11,206360376.82770486
47,77788723.45008946
71,8420323.450089584
346,69368399.9999999
993,72641339.99999988
1017,72641339.99999988
1497,439921385.1091528
1533,0.0
1557,0.0
2228,2528988.081191187
2366,1339448.8514086186
4114,42459001.05068682
4126,22882147.520862655
4162,14199365.105798254
4210,10290934.387712408
4236,438581936.2577442
4348,0.0
4473,651389.8580250539
2,1, 1, 1, 0,10, 0.00,60.00,Holiday
11,197018799.37067247
47,77593285.00797159
71,8224885.00797172
346,69368399.9999999
993,72641339.99999988
1017,72641339.99999988
1497,303467295.25437256
1533,0.0
1557,0.0
2228,3433095.3478693387
2366,1624401.2313791316
4114,33754731.04377344
4126,16545733.132386329
4162,14199365.105798254
4210,9348579.20569174
4236,301842894.0229934
4348,0.0
4473,247768.76536641766
2,1, 1, 1, 0,11, 0.00,60.00,Holiday
11,202000870.6273632
47,77685475.68439643
71,29765875.684396488
346,47919599.99999992
993,74424959.99999996
1017,74424959.99999996
1497,237534659.84476633
1533,0.0
1557,0.0
2228,5966681.369935846
2366,2059290.792412283
4114,34605862.289540078
4126,16519577.605455207
4162,14199365.105798254
4210,9111957.532920003
4236,235475369.05235405
4348,0.0
4473,205933.75057093378
2,1, 1, 1, 0,12, 0.00,60.00,Holiday
11,199608925.7548853
47,76473050.46297038
71,28553450.462970426
346,47919599.99999992
993,74424959.99999996
1017,74424959.99999996
1497,204958872.87034894
1533,11438885.168497468
1557,11438885.168497468
2228,6095906.214750334
2366,2093566.9409661475
4114,33290421.649196596
4126,16519577.605455207
4162,14199365.105798254
4210,9121819.675876558
4236,191426420.76088528
4348,0.0
4473,202767.75209156457
2,1, 1, 1, 0,13, 0.00,60.00,Holiday
11,224822772.33132909
47,86100411.04130052
71,38180811.04130055
346,47919599.99999992
993,89913239.99999997
1017,89913239.99999997
1497,127495091.059684
1533,11438885.168497468
1557,11438885.168497468
2228,7517993.26980418
2366,2466337.601440438
4114,32009539.352482395
4126,16519577.605455207
4162,14199365.105798254
4210,9082559.198458992
4236,113589868.28974609
4348,0.0
4473,199029.46928305256
2,1, 1, 1, 0,14, 0.00,60.00,Holiday
11,223253909.96562339
47,85846866.29845155
71,37927266.29845158
346,47919599.99999992
993,89913239.99999997
1017,89913239.99999997
1497,75895588.23087515
1533,0.0
1557,0.0
2228,7518695.743310463
2366,2516817.242795053
4114,31094030.001882778
4126,16519577.605455207
4162,14199365.105798254
4210,8682692.931262285
4236,73378770.9880801
4348,0.0
4473,198384.9907164246
2,1, 1, 1, 0,15, 0.00,60.00,Holiday
11,223211826.84103216
47,86338690.39436518
71,38419090.39436521
346,47919599.99999992
993,89913239.99999997
1017,89913239.99999997
1497,65610597.11681077
1533,0.0
1557,0.0
2228,7350255.008586161
2366,2406598.308986715
4114,30953072.176727214
4126,16519577.605455207
4162,14199365.105798254
4210,8458343.336128867
4236,63203998.80782405
4348,0.0
4473,198225.92522482275
2,1, 1, 1, 0,16, 0.00,60.00,Holiday
11,222936819.67477087
47,86065565.30307883
71,38145965.30307887
346,47919599.99999992
993,89913239.99999997
1017,89913239.99999997
1497,67081407.90511231
1533,0.0
1557,0.0
2228,7237152.421475059
2366,2438126.770365044
4114,30978225.086180629
4126,16550193.335368589
4162,14199365.105798254
4210,8544393.585635089
4236,64643281.13474727
4348,0.0
4473,198243.27840135859
2,1, 1, 1, 0,17, 0.00,60.00,Holiday
11,227148784.84912653
47,88928222.3859295
71,41008622.38592951
346,47919599.99999992
993,89913239.99999997
1017,89913239.99999997
1497,115267596.5102748
1533,28597212.921243654
1557,28597212.921243654
2228,7804261.61408197
2366,2467334.936979575
4114,31204157.159784534
4126,16576165.109738224
4162,14199365.105798254
4210,9100267.634358077
4236,84203048.65205156
4348,0.0
4473,198636.05497253978
2,1, 1, 1, 0,18, 0.00,60.00,Holiday
11,201615269.2209285
47,78647111.99999994
71,30727511.99999999
346,47919599.99999992
993,74424959.99999996
1017,74424959.99999996
1497,174202030.91271714
1533,28597212.921243654
1557,28597212.921243654
2228,6355908.554133803
2366,2422946.0623874778
4114,32057610.962036384
4126,16519577.605455207
4162,14199365.105798254
4210,9928691.273052814
4236,143181871.92908604
4348,0.0
4473,200986.43170566154
2,1, 1, 1, 0,19, 0.00,60.00,Holiday
11,243386085.8419231
47,106749035.99999982
71,15931835.999999995
346,90817199.99999984
993,101834279.99999984
1017,101834279.99999984
1497,203761036.16147817
1533,28597212.921243654
1557,28597212.921243654
2228,5673349.016861561
2366,1725216.0966199223
4114,28891121.89777016
4126,14487417.026481722
4162,14199365.105798254
4210,30225.43470363777
4236,173438607.14361463
4348,0.0
4473,208073.49258796374
2,1, 1, 1, 0,20, 0.00,60.00,Holiday
11,271574726.5632954
47,124250678.9999998
71,4835078.999999999
346,119415599.9999998
993,118816469.99999982
1017,118816469.99999982
1497,2184465.6763813907
1533,0.0
1557,0.0
2228,5843288.241884495
2366,2035644.8747232783
4114,22664289.321411186
4126,8458341.339612136
4162,14199365.105798254
4210,0.0
4236,148820.8016581122
4348,0.0
4473,0.0
2,1, 1, 1, 0,21, 0.00,60.00,Holiday
11,297995772.46793666
47,138549878.9999998
71,4835078.999999999
346,133714799.99999979
993,133115669.99999979
1017,133115669.99999979
1497,2093782.7232426073
1533,0.0
1557,0.0
2228,3666971.0461632816
2366,1968403.3265172248
4114,22663252.421773688
4126,8458341.339612136
4162,14199365.105798254
4210,0.0
4236,125379.39672538235
4348,0.0
4473,0.0
2,1, 1, 1, 0,22, 0.00,60.00,Holiday
11,269242646.77283647
47,124250678.9999998
71,4835078.999999999
346,119415599.9999998
993,118816469.99999982
1017,118816469.99999982
1497,1887279.4673619932
1533,0.0
1557,0.0
2228,3498216.537566806
2366,1444746.8666363892
4114,22677281.235269917
4126,8458341.339612136
4162,14199365.105798254
4210,0.0
4236,442532.6007256038
4348,0.0
4473,0.0
2,1, 1, 1, 0,23, 0.00,60.00,Holiday
11,211012492.26363627
47,95652278.99999984
71,4835078.999999999
346,90817199.99999984
993,90218069.99999985
1017,90218069.99999985
1497,1260900.6345610819
1533,0.0
1557,0.0
2228,2484436.8182261285
2366,1260900.6345610819
4114,22657706.44541039
4126,8458341.339612136
4162,14199365.105798254
4210,0.0
4236,0.0
4348,0.0
4473,0.0
2,1, 1, 1, 0,24, 0.00,60.00,Holiday
11,123532974.0351302
47,52754678.99999992
71,4835078.999999999
346,47919599.99999992
993,47320469.999999929
1017,47320469.999999929
1497,1298453.4535720573
1533,0.0
1557,0.0
2228,800118.5897198478
2366,1298453.4535720573
4114,22657706.44541039
4126,8458341.339612136
4162,14199365.105798254
4210,0.0
4236,0.0
4348,0.0
4473,0.0
2,2, 1, 2, 0, 1, 0.00,60.00,Friday
11,66322812.05123616
47,24156278.99999996
71,4835078.999999999
346,19321199.999999968
993,18722069.99999997
1017,18722069.99999997
1497,1030181.2603918363
1533,0.0
1557,0.0
2228,786756.6058258227
2366,1030181.2603918363
4114,22657706.44541039
4126,8458341.339612136
4162,14199365.105798254
4210,0.0
4236,0.0
4348,0.0
4473,0.0
2,2, 1, 2, 0, 2, 0.00,60.00,Friday
11,67122741.78780517
47,24156278.99999996
71,4835078.999999999
346,19321199.999999968
993,18722069.99999997
1017,18722069.99999997
1497,1035402.4396439354
1533,0.0
1557,0.0
2228,1586686.3423948398
2366,1035402.4396439354
4114,22657706.44541039
4126,8458341.339612136
4162,14199365.105798254
4210,0.0
4236,0.0
4348,0.0
4473,0.0
2,2, 1, 2, 0, 3, 0.00,60.00,Friday
11,66329240.388423878
47,24156278.99999996
71,4835078.999999999
346,19321199.999999968
993,18722069.99999997
1017,18722069.99999997
1497,1035593.1899753114
1533,0.0
1557,0.0
2228,793184.9430135354
2366,1035593.1899753114
4114,22657706.44541039
4126,8458341.339612136
4162,14199365.105798254
4210,0.0
4236,0.0
4348,0.0
4473,0.0
2,2, 1, 2, 0, 4, 0.00,60.00,Friday
11,66341102.990977179
47,24156278.99999996
71,4835078.999999999
346,19321199.999999968
993,18722069.99999997
1017,18722069.99999997
1497,1442726.5919703898
1533,0.0
1557,0.0
2228,786812.763876699
2366,1030487.9205512307
4114,22675941.22710053
4126,8458341.339612136
4162,14199365.105798254
4210,0.0
4236,412238.67141915918
4348,0.0
4473,0.0
2,2, 1, 2, 0, 5, 0.00,60.00,Friday
11,66447364.73155662
47,24156278.99999996
71,4835078.999999999
346,19321199.999999968
993,18722069.99999997
1017,18722069.99999997
1497,3847608.026059517
1533,0.0
1557,0.0
2228,786700.0337752967
2366,1030533.9983910373
4114,22782315.69778138
4126,8458341.339612136
4162,14199365.105798254
4210,0.0
4236,2817074.02766848
4348,0.0
4473,0.0
2,2, 1, 2, 0, 6, 0.00,60.00,Friday
11,139929723.43535645
47,53890838.99999992
71,5971238.999999999
346,47919599.99999992
993,47871269.999999929
1017,47871269.999999929
1497,3203489.254949159
1533,0.0
1557,0.0
2228,1239632.2059345686
2366,1037517.4460367309
4114,24785675.693957706
4126,10490501.918585619
4162,14199365.105798254
4210,12142306.535464216
4236,2165971.808912428
4348,0.0
4473,0.0
2,2, 1, 2, 0, 7, 0.00,60.00,Friday
11,214940897.0441534
47,80361638.99999988
71,5971238.999999999
346,74390399.99999988
993,69320069.9999999
1017,69320069.9999999
1497,703888750.6395185
1533,28597212.921243654
1557,28597212.921243654
2228,1120575.5874429916
2366,1293920.9749021074
4114,51252280.988324809
4126,22499309.949628325
4162,14199365.105798252
4210,12213076.555573732
4236,673997616.7433727
4348,0.0
4473,673254.912812032
2,2, 1, 2, 0, 8, 0.00,60.00,Friday
11,232882639.69148375
47,95964111.53192374
71,21573711.53192386
346,74390399.99999988
993,83139479.99999988
1017,83139479.99999988
1497,480220580.46594998
1533,28882321.086319496
1557,28882321.086319496
2228,2599671.0507291017
2366,1692231.0024468844
4114,38719961.988362718
4126,16532175.202437753
4162,14199365.105798254
4210,12193349.902679384
4236,449646028.3771836
4348,0.0
4473,266065.21778890609
2,2, 1, 2, 0, 9, 0.00,60.00,Friday
11,293165158.5870984
47,125688277.73815033
71,51297877.73815045
346,74390399.99999988
993,112981499.99999987
1017,112981499.99999987
1497,348532379.13537028
1533,285108.16507584266
1557,285108.16507584266
2228,4679723.221914162
2366,2460103.2948352566
4114,37097949.294334288
4126,16519577.605455207
4162,14199365.105798254
4210,12498281.397887862
4236,345787167.67545917
4348,0.0
4473,219426.9348119594
2,2, 1, 2, 0,10, 0.00,60.00,Friday
11,351273064.61200258
47,150737670.9956237
71,76347270.99562377
346,74390399.99999988
993,143958059.99999995
1017,143958059.99999995
1497,286974466.56248119
1533,285108.16507584266
1557,285108.16507584266
2228,7198096.4518032
2366,2951966.9318231169
4114,36644850.05777076
4126,16579227.828103755
4162,14199365.105798254
4210,12525256.409060434
4236,283737391.46558228
4348,0.0
4473,209130.69774457045
2,2, 1, 2, 0,11, 0.00,60.00,Friday
11,309428287.9448647
47,128775913.48189736
71,75834313.48189739
346,52941599.9999999
993,122509259.99999996
1017,122509259.99999996
1497,302928041.49452486
1533,513194.69713651677
1557,513194.69713651677
2228,7986333.082261816
2366,3142588.243718505
4114,37775431.04515011
4126,16686511.183628697
4162,14199365.105798254
4210,12173704.168008212
4236,299272258.5536698
4348,0.0
4473,207646.16754723469
2,2, 1, 2, 0,12, 0.00,60.00,Friday
11,310955389.7401669
47,127608335.58369696
71,74666735.58369699
346,52941599.9999999
993,122509259.99999996
1017,122509259.99999996
1497,266414261.79074497
1533,11952079.865633984
1557,11952079.865633984
2228,12422667.102730852
2366,4199217.552730989
4114,36601140.416032049
4126,16954220.512118486
4162,14199365.105798254
4210,11609584.887643218
4236,250262964.37237997
4348,0.0
4473,204401.75006397745
2,2, 1, 2, 0,13, 0.00,60.00,Friday
11,304790996.327772
47,125474646.90102881
71,72533046.90102883
346,52941599.9999999
993,122509259.99999996
1017,122509259.99999996
1497,152033949.34871329
1533,11952079.865633984
1557,11952079.865633984
2228,12585322.58853022
2366,4607843.955568889
4114,34097638.45704384
4126,17272389.00665094
4162,14199365.105798254
4210,9924910.850286056
4236,135474025.5275104
4348,0.0
4473,199217.53088318057
2,2, 1, 2, 0,14, 0.00,60.00,Friday
11,299813335.74600198
47,124574876.94041291
71,71633276.94041293
346,52941599.9999999
993,122509259.99999996
1017,122509259.99999996
1497,67556115.78252289
1533,513194.69713651677
1557,513194.69713651677
2228,12665494.74532507
2366,4372463.513799928
4114,32594293.034084314
4126,17716510.171433044
4162,14199365.105798254
4210,7271251.681563008
4236,62670457.571586448
4348,0.0
4473,198159.34461673315
2,2, 1, 2, 0,15, 0.00,60.00,Friday
11,297200288.89464607
47,125193274.15726592
71,72251674.15726593
346,52941599.9999999
993,122509259.99999996
1017,122509259.99999996
1497,36405903.14598619
1533,427662.2476137639
1557,427662.2476137639
2228,10588739.530069538
2366,3574682.48808228
4114,32756760.54897832
4126,18296126.37630412
4162,14199365.105798254
4210,5953901.10979608
4236,32403558.410290149
4348,0.0
4473,198353.5485362797
2,2, 1, 2, 0,16, 0.00,60.00,Friday
11,299084375.99648639
47,128552970.05184198
71,75611370.05184199
346,52941599.9999999
993,122509259.99999996
1017,122509259.99999996
1497,20715877.224871398
1533,427662.2476137639
1557,427662.2476137639
2228,8935074.326326736
2366,3525631.1812165908
4114,33424678.2588247
4126,19004684.68588056
4162,14199365.105798254
4210,5463684.748958009
4236,16762583.796041042
4348,0.0
4473,198708.6105350562
2,2, 1, 2, 0,17, 0.00,60.00,Friday
11,302615476.8103537
47,130475579.59582767
71,77533979.5958277
346,52941599.9999999
993,122509259.99999996
1017,122509259.99999996
1497,75442251.76295749
1533,29024875.168857416
1557,29024875.168857416
2228,9547964.24345329
2366,3618832.546212077
4114,33683111.831989537
4126,18904598.897726619
4162,14199365.105798254
4210,6201254.81057044
4236,42798544.04788799
4348,0.0
4473,198306.32851288445
2,2, 1, 2, 0,18, 0.00,60.00,Friday
11,296090577.5869617
47,123776342.99999996
71,70834742.99999997
346,52941599.9999999
993,118102859.99999997
1017,118102859.99999997
1497,130349624.76757327
1533,29024875.168857416
1557,29024875.168857416
2228,9835920.133477355
2366,3201159.947621961
4114,34111276.53016925
4126,18213560.027692994
4162,14199365.105798254
4210,10065916.46173496
4236,98123589.6510939
4348,0.0
4473,198261.46158022548
2,2, 1, 2, 0,19, 0.00,60.00,Friday
11,330212421.55369678
47,143344268.99999986
71,47505068.99999999
346,95839199.99999984
993,135564839.99999989
1017,135564839.99999989
1497,140652185.57976703
1533,28597212.921243654
1557,28597212.921243654
2228,9228686.116570076
2366,3001590.091578453
4114,31332396.1138156
4126,16812298.074745105
4162,14199365.105798254
4210,10541885.775162599
4236,109053382.56694491
4348,0.0
4473,200344.54814871998
2,2, 1, 2, 0,20, 0.00,60.00,Friday
11,384464559.99893966
47,171942668.99999974
71,47505068.99999999
346,124437599.9999998
993,164163239.99999974
1017,164163239.99999974
1497,104054225.47676337
1533,0.0
1557,0.0
2228,6605227.694391083
2366,2495065.0650025068
4114,30873776.676809569
4126,16643519.589216426
4162,14199365.105798254
4210,10679102.214766717
4236,101559160.41176087
4348,0.0
4473,200544.41297270248
2,2, 1, 2, 0,21, 0.00,60.00,Friday
11,399007573.39315518
47,180270629.9999997
71,41533829.999999988
346,138736799.9999998
993,169616699.99999974
1017,169616699.99999974
1497,119140975.50830175
1533,0.0
1557,0.0
2228,6971484.937805488
2366,2531444.4149270064
4114,30796837.339580649
4126,16566040.44242317
4162,14199365.105798254
4210,11149689.052841163
4236,116609531.09337475
4348,0.0
4473,202232.06292821776
2,2, 1, 2, 0,22, 0.00,60.00,Friday
11,316709846.02805188
47,143777915.9999998
71,19340315.999999998
346,124437599.9999998
993,132085079.9999998
1017,132085079.9999998
1497,4003947.235589593
1533,0.0
1557,0.0
2228,4676528.676832966
2366,1974836.0773389305
4114,24779621.90451891
4126,10490501.918585619
4162,14199365.105798254
4210,11390699.446700283
4236,2029111.1582506623
4348,0.0
4473,0.0
2,2, 1, 2, 0,23, 0.00,60.00,Friday
11,226187621.82713277
47,96788438.99999984
71,5971238.999999999
346,90817199.99999984
993,90768869.99999985
1017,90768869.99999985
1497,1427307.6087298985
1533,0.0
1557,0.0
2228,2552164.767056211
2366,1427307.6087298985
4114,24689867.024383874
4126,10490501.918585619
4162,14199365.105798254
4210,11388281.03569295
4236,0.0
4348,0.0
4473,0.0
2,2, 1, 2, 0,24, 0.00,60.00,Friday
11,138219935.915225
47,52754678.99999992
71,4835078.999999999
346,47919599.99999992
993,47320469.999999929
1017,47320469.999999929
1497,1239087.3193177973
1533,0.0
1557,0.0
2228,2017365.4173378736
2366,1239087.3193177973
4114,24689867.024383874
4126,10490501.918585619
4162,14199365.105798254
4210,11437554.473503299
4236,0.0
4348,0.0
4473,0.0
2,3, 1, 3, 0, 1, 0.00,60.00,Saturday
11,67643010.84314983
47,24156278.99999996
71,4835078.999999999
346,19321199.999999968
993,18722069.99999997
1017,18722069.99999997
1497,1335478.9458808397
1533,0.0
1557,0.0
2228,2106955.3977395
2366,1335478.9458808397
4114,22657706.44541039
4126,8458341.339612136
4162,14199365.105798254
4210,0.0
4236,0.0
4348,0.0
4473,0.0
2,3, 1, 3, 0, 2, 0.00,60.00,Saturday
11,68020477.60801058
47,24156278.99999996
71,4835078.999999999
346,19321199.999999968
993,18722069.99999997
1017,18722069.99999997
1497,1328443.3026987904
1533,0.0
1557,0.0
2228,2484422.1626002446
2366,1328443.3026987904
4114,22657706.44541039
4126,8458341.339612136
4162,14199365.105798254
4210,0.0
4236,0.0
4348,0.0
4473,0.0
2,3, 1, 3, 0, 3, 0.00,60.00,Saturday
11,67198153.49512504
47,24156278.99999996
71,4835078.999999999
346,19321199.999999968
993,18722069.99999997
1017,18722069.99999997
1497,2086919.870919493
1533,0.0
1557,0.0
2228,1627944.7100415617
2366,1314806.0276811484
4114,22691859.78508354
4126,8458341.339612136
4162,14199365.105798254
4210,0.0
4236,772113.8432383449
4348,0.0
4473,0.0
2,3, 1, 3, 0, 4, 0.00,60.00,Saturday
11,66866997.55170816
47,24156278.99999996
71,4835078.999999999
346,19321199.999999968
993,18722069.99999997
1017,18722069.99999997
1497,7509533.689046714
1533,0.0
1557,0.0
2228,1044806.1661412688
2366,1040784.6365728708
4114,22943842.38556695
4126,8458341.339612136
4162,14199365.105798254
4210,0.0
4236,6468749.052473843
4348,0.0
4473,0.0
2,3, 1, 3, 0, 5, 0.00,60.00,Saturday
11,67945790.73673812
47,24156278.99999996
71,4835078.999999999
346,19321199.999999968
993,18722069.99999997
1017,18722069.99999997
1497,24877905.617190496
1533,0.0
1557,0.0
2228,1355347.9375151708
2366,1041115.2979573709
4114,23712093.799223007
4126,8458341.339612136
4162,14199365.105798254
4210,0.0
4236,23836790.319233128
4348,0.0
4473,0.0
2,3, 1, 3, 0, 6, 0.00,60.00,Saturday
11,173154332.63814277
47,52754678.99999992
71,4835078.999999999
346,47919599.99999992
993,47320469.999999929
1017,47320469.999999929
1497,29728459.424501495
1533,0.0
1557,0.0
2228,1600173.5237072623
2366,1309938.7229589313
4114,25946920.750663077
4126,10490501.918585619
4162,14199365.105798254
4210,45532089.363772507
4236,28418520.701542565
4348,0.0
4473,0.0
2,3, 1, 3, 0, 7, 0.00,60.00,Saturday
11,257114176.17488794
47,80361638.99999988
71,5971238.999999999
346,74390399.99999988
993,69320069.9999999
1017,69320069.9999999
1497,963929261.6948919
1533,28597212.921243654
1557,28597212.921243654
2228,1613950.1786319277
2366,1222553.219719512
4114,58324812.03443565
4126,19837661.866062505
4162,14199365.105798254
4210,46833744.49133434
4236,934109495.5539286
4348,0.0
4473,659960.4704862214
2,3, 1, 3, 0, 8, 0.00,60.00,Saturday
11,252313606.71753515
47,83681716.29360229
71,9291316.293602404
346,74390399.99999988
993,73192139.99999988
1017,73192139.99999988
1497,650136865.2956281
1533,28597212.921243654
1557,28597212.921243654
2228,3632005.8134178987
2366,1805772.739232607
4114,43383672.070780988
4126,16519577.605455207
4162,14199365.105798254
4210,48057388.43010155
4236,619733879.6351519
4348,0.0
4473,366684.1096325213
2,3, 1, 3, 0, 9, 0.00,60.00,Saturday
11,280630092.1495647
47,101608701.87187383
71,27218301.87187397
346,74390399.99999988
993,90883619.99999987
1017,90883619.99999987
1497,452384390.26683488
1533,285108.16507584266
1557,285108.16507584266
2228,5085998.18324449
2366,2056740.985142626
4114,38073361.91438469
4126,16519577.605455207
4162,14199365.105798254
4210,44679812.76295738
4236,450042541.1166165
4348,0.0
4473,298597.4171044276
2,3, 1, 3, 0,10, 0.00,60.00,Saturday
11,313658839.37189087
47,119120512.56192014
71,44730112.56192027
346,74390399.99999988
993,114116039.99999988
1017,114116039.99999988
1497,343565393.3382259
1533,285108.16507584266
1557,285108.16507584266
2228,5473491.689709261
2366,2429531.047133133
4114,36088775.836297098
4126,16563811.507367198
4162,14199365.105798254
4210,38608488.48609081
4236,340850754.126017
4348,0.0
4473,251530.79787363325
2,3, 1, 3, 0,11, 0.00,60.00,Saturday
11,311812962.4818566
47,117599968.66389919
71,64658368.66389921
346,52941599.9999999
993,115899659.99999997
1017,115899659.99999997
1497,318287283.85672757
1533,513194.69713651677
1557,513194.69713651677
2228,9227885.919398558
2366,2984582.136389479
4114,36142519.48180965
4126,16754757.754552067
4162,14199365.105798254
4210,32709971.80656299
4236,314789507.0232016
4348,0.0
4473,232956.61018625584
2,3, 1, 3, 0,12, 0.00,60.00,Saturday
11,298626004.35791638
47,117115843.4583424
71,64174243.45834242
346,52941599.9999999
993,115899659.99999997
1017,115899659.99999997
1497,266798308.8620276
1533,11952079.865633984
1557,11952079.865633984
2228,10821848.84440949
2366,3642546.3835566297
4114,35089594.20547893
4126,17082014.215818138
4162,14199365.105798254
4210,19482913.10573688
4236,251203682.61283694
4348,0.0
4473,216144.7439487061
2,3, 1, 3, 0,13, 0.00,60.00,Saturday
11,288370204.6477384
47,113196905.75203634
71,60255305.752036359
346,52941599.9999999
993,114247259.99999997
1017,114247259.99999997
1497,202912301.0219909
1533,11952079.865633984
1557,11952079.865633984
2228,12285567.469007656
2366,3707685.445202971
4114,34736369.610835809
4126,17817843.84023166
4162,14199365.105798254
4210,13682866.491359398
4236,187252535.71115399
4348,16701.90724963899
4473,204533.4172496215
2,3, 1, 3, 0,14, 0.00,60.00,Saturday
11,287668299.4158058
47,113312831.04575908
71,60371231.0457591
346,52941599.9999999
993,114247259.99999997
1017,114247259.99999997
1497,158730795.46733795
1533,513194.69713651677
1557,513194.69713651677
2228,12689420.939294381
2366,3741164.9087338836
4114,34822297.0511806
4126,18505081.06208718
4162,14199365.105798254
4210,12157919.360848448
4236,154476435.86146755
4348,237237.5608988276
4473,201333.45782454738
2,3, 1, 3, 0,15, 0.00,60.00,Saturday
11,287289346.41602697
47,114295195.01920848
71,61353595.019208509
346,52941599.9999999
993,114247259.99999997
1017,114247259.99999997
1497,138577707.8637285
1533,427662.2476137639
1557,427662.2476137639
2228,10091726.322273415
2366,3135185.5233270509
4114,35254665.461010318
4126,19175584.942025939
4162,14199365.105798254
4210,12342892.945459769
4236,135014860.09278769
4348,857527.9446166334
4473,200078.72345834669
2,3, 1, 3, 0,16, 0.00,60.00,Saturday
11,289667284.10536298
47,113480953.86090067
71,60539353.86090069
346,52941599.9999999
993,114247259.99999997
1017,114247259.99999997
1497,149475407.36918427
1533,427662.2476137639
1557,427662.2476137639
2228,9957329.29243549
2366,3043054.6812086037
4114,35728321.775409039
4126,19568021.047309586
4162,14199365.105798254
4210,15440650.614087519
4236,146004690.4403619
4348,612104.6758362379
4473,200663.8866941155
2,3, 1, 3, 0,17, 0.00,60.00,Saturday
11,298778782.72834387
47,117645370.8848575
71,64703770.88485752
346,52941599.9999999
993,114247259.99999997
1017,114247259.99999997
1497,212301285.1491855
1533,29024875.168857416
1557,29024875.168857416
2228,9828183.57282636
2366,3040412.5646166887
4114,36551371.292513769
4126,19754973.721552046
4162,14199365.105798256
4210,20282200.325513405
4236,180235997.4157114
4348,21428.624858580566
4473,202968.02777436947
2,3, 1, 3, 0,18, 0.00,60.00,Saturday
11,301415078.7964991
47,111937382.99999996
71,64017782.99999998
346,47919599.99999992
993,113145659.99999997
1017,113145659.99999997
1497,273998896.0313735
1533,28597212.921243654
1557,28597212.921243654
2228,9698558.30273952
2366,2960587.34103153
4114,37205294.57283274
4126,18813928.09295222
4162,14199365.105798254
4210,29220338.37705048
4236,242441095.76909835
4348,0.0
4473,207844.54387644368
2,3, 1, 3, 0,19, 0.00,60.00,Saturday
11,332023120.1091944
47,128942549.99999987
71,38125349.999999988
346,90817199.99999984
993,125066699.99999988
1017,125066699.99999988
1497,298007160.61093559
1533,28597212.921243654
1557,28597212.921243654
2228,8572002.21871991
2366,2923147.1063514419
4114,33543561.095803225
4126,16558412.600603879
4162,14199365.105798254
4210,35663617.54461306
4236,266486800.58334048
4348,0.0
4473,234689.25005843043
2,3, 1, 3, 0,20, 0.00,60.00,Saturday
11,318805887.90523317
47,142745273.9999998
71,23329673.999999994
346,119415599.9999998
993,138176819.9999998
1017,138176819.9999998
1497,255780595.97613625
1533,0.0
1557,0.0
2228,7368436.130234564
2366,2471443.7257321898
4114,30223232.481799146
4126,14487417.026481722
4162,14199365.105798254
4210,39755.84350848953
4236,253309152.25040407
4348,0.0
4473,252369.4496913044
2,3, 1, 3, 0,21, 0.00,60.00,Saturday
11,346225170.25735279
47,157044473.99999977
71,23329673.999999994
346,133714799.99999979
993,152476019.99999977
1017,152476019.99999977
1497,277404048.2110474
1533,0.0
1557,0.0
2228,6229139.608874347
2366,2074873.630904159
4114,30153735.609561258
4126,14487417.026481722
4162,14199365.105798254
4210,44943.84913020682
4236,275329174.5801432
4348,0.0
4473,276857.18978734049
2,3, 1, 3, 0,22, 0.00,60.00,Saturday
11,286926535.9348708
47,127949597.9999998
71,8533997.999999999
346,119415599.9999998
993,122688539.9999998
1017,122688539.9999998
1497,355410742.4262036
1533,0.0
1557,0.0
2228,4382487.97268821
2366,2003519.366067042
4114,31533022.297386938