Program Version,EnergyPlus, Version 9.0.1-bb7ca4f0da, YMD=2019.12.18 16:39
1,5,Environment Title[],Latitude[deg],Longitude[deg],Time Zone[],Elevation[m]
2,8,Day of Simulation[],Month[],Day of Month[],DST Indicator[1=yes 0=no],Hour[],StartMinute[],EndMinute[],DayType
3,5,Cumulative Day of Simulation[],Month[],Day of Month[],DST Indicator[1=yes 0=no],DayType  ! When Daily Meters Requested
4,2,Cumulative Days of Simulation[],Month[]  ! When Monthly Meters Requested
5,1,Cumulative Days of Simulation[] ! When Run Period Meters Requested
6,1,Calendar Year of Simulation[] ! When Annual Meters Requested
4350,1,Cooling:Electricity [J] !Hourly
1533,1,InteriorEquipment:Gas [J] !Hourly
4222,1,Heating:Gas [J] !Hourly
47,1,InteriorLights:Electricity [J] !Hourly
1497,1,Gas:Facility [J] !Hourly
2366,1,WaterSystems:Gas [J] !Hourly
4114,1,Fans:Electricity [J] !Hourly
11,1,Electricity:Facility [J] !Hourly
993,1,InteriorEquipment:Electricity [J] !Hourly
1017,1,Receptacle:InteriorEquipment:Electricity [J] !Hourly
4471,1,Pumps:Electricity [J] !Hourly
4235,1,Heating:Electricity [J] !Hourly
2228,1,WaterSystems:Electricity [J] !Hourly
346,1,NonComplianceLtg:InteriorLights:Electricity [J] !Hourly
1557,1,Receptacle:InteriorEquipment:Gas [J] !Hourly
71,1,ComplianceLtg:InteriorLights:Electricity [J] !Hourly
4126,1,General:Fans:Electricity [J] !Hourly
4162,1,ProcessMotors:Fans:Electricity [J] !Hourly
End of Data Dictionary
1,PALMDALE_723820_CZ2010,  34.63,-118.08,  -8.00, 769.00
2,1, 1, 1, 0, 1, 0.00,60.00,Holiday
11,66343092.18483513
47,24156278.99999996
71,4835078.999999999
346,19321199.999999968
993,18722069.99999997
1017,18722069.99999997
1497,1044096.7992624821
1533,0.0
1557,0.0
2228,807036.739424796
2366,1044096.7992624821
4114,22657706.44541039
4126,8458341.339612136
4162,14199365.105798254
4222,0.0
4235,0.0
4350,0.0
4471,0.0
2,1, 1, 1, 0, 2, 0.00,60.00,Holiday
11,67149921.92555039
47,24156278.99999996
71,4835078.999999999
346,19321199.999999968
993,18722069.99999997
1017,18722069.99999997
1497,1044107.0623287229
1533,0.0
1557,0.0
2228,1613866.4801400519
2366,1044107.0623287229
4114,22657706.44541039
4126,8458341.339612136
4162,14199365.105798254
4222,0.0
4235,0.0
4350,0.0
4471,0.0
2,1, 1, 1, 0, 3, 0.00,60.00,Holiday
11,67160108.65006402
47,24156278.99999996
71,4835078.999999999
346,19321199.999999968
993,18722069.99999997
1017,18722069.99999997
1497,1535673.8912582496
1533,0.0
1557,0.0
2228,1613906.6873373443
2366,1305263.2067899716
4114,22667852.962726725
4126,8458341.339612136
4162,14199365.105798256
4222,230410.6844682781
4235,0.0
4350,0.0
4471,0.0
2,1, 1, 1, 0, 4, 0.00,60.00,Holiday
11,67202389.69018138
47,24156278.99999996
71,4835078.999999999
346,19321199.999999968
993,18722069.99999997
1017,18722069.99999997
1497,2557541.4263048015
1533,0.0
1557,0.0
2228,1600216.9262653595
2366,1038712.4844365936
4114,22723823.76391608
4126,8458341.339612136
4162,14199365.105798254
4222,1518828.9418682079
4235,0.0
4350,0.0
4471,0.0
2,1, 1, 1, 0, 5, 0.00,60.00,Holiday
11,66532832.96118068
47,24156278.99999996
71,4835078.999999999
346,19321199.999999968
993,18722069.99999997
1017,18722069.99999997
1497,5586153.9901689239
1533,0.0
1557,0.0
2228,800176.1753032714
2366,1038851.7077079964
4114,22854307.78587746
4126,8458341.339612136
4162,14199365.105798254
4222,4547302.282460927
4235,0.0
4350,0.0
4471,0.0
2,1, 1, 1, 0, 6, 0.00,60.00,Holiday
11,126532001.32933496
47,52754678.99999992
71,4835078.999999999
346,47919599.99999992
993,47320469.999999929
1017,47320469.999999929
1497,66055184.678605
1533,0.0
1557,0.0
2228,1600472.3312512604
2366,1306939.092881977
4114,24856379.998083749
4126,10490501.918585619
4162,14199365.105798254
4222,64748245.58572303
4235,0.0
4350,0.0
4471,0.0
2,1, 1, 1, 0, 7, 0.00,60.00,Holiday
11,185682350.595711
47,74203478.99999988
71,4835078.999999999
346,69368399.9999999
993,68769269.9999999
1017,68769269.9999999
1497,441053433.538202
1533,28597212.921243654
1557,28597212.921243654
2228,1613923.4731011345
2366,1044103.8048017429
4114,41095678.12261007
4126,10490501.918585619
4162,14199365.105798254
4222,411412116.8121565
4235,0.0
4350,0.0
4471,0.0
2,1, 1, 1, 0, 8, 0.00,60.00,Holiday
11,177699879.9608486
47,74193396.8068998
71,4824996.806899916
346,69368399.9999999
993,68769269.9999999
1017,68769269.9999999
1497,270819886.6042632
1533,28597212.921243654
1557,28597212.921243654
2228,1656310.1369827844
2366,1325364.1852792339
4114,33080903.01696614
4126,10490501.918585619
4162,14199365.105798254
4222,240897309.4977403
4235,0.0
4350,0.0
4471,0.0
2,1, 1, 1, 0, 9, 0.00,60.00,Holiday
11,196384085.68702183
47,77788723.45008946
71,8420323.450089584
346,69368399.9999999
993,72641339.99999988
1017,72641339.99999988
1497,499409130.4651543
1533,0.0
1557,0.0
2228,2528988.1077561059
2366,1339448.8868301525
4114,42709486.53722693
4126,22881097.96807374
4162,14199365.105798254
4222,498069681.5783242
4235,64152.45699312188
4350,0.0
4471,651395.1349562906
2,1, 1, 1, 0,10, 0.00,60.00,Holiday
11,187818546.07054986
47,77593285.00797159
71,8224885.00797172
346,69368399.9999999
993,72641339.99999988
1017,72641339.99999988
1497,362564392.5312046
1533,0.0
1557,0.0
2228,3433095.3358998198
2366,1624401.2858805115
4114,33859964.30230042
4126,16545716.2435149
4162,14199365.105798254
4222,360939991.24532416
4235,43095.29010862572
4350,0.0
4471,247766.1342694817
2,1, 1, 1, 0,11, 0.00,60.00,Holiday
11,193131104.66161839
47,77685475.68439643
71,29765875.684396488
346,47919599.99999992
993,74424959.99999996
1017,74424959.99999996
1497,296266579.0486537
1533,0.0
1557,0.0
2228,5966681.350183067
2366,2059290.769312887
4114,34821631.69478977
4126,16519577.605455207
4162,14199365.105798254
4222,294207288.27934089
4235,26425.105680812434
4350,0.0
4471,205930.82656838333
2,1, 1, 1, 0,12, 0.00,60.00,Holiday
11,190646166.51260574
47,76473050.46297038
71,28553450.462970426
346,47919599.99999992
993,74424959.99999996
1017,74424959.99999996
1497,263849389.57320688
1533,11438885.168497468
1557,11438885.168497468
2228,6095906.213487169
2366,2093566.8672717284
4114,33425616.806726085
4126,16519577.605455207
4162,14199365.105798254
4222,250316937.53743769
4235,23865.247182400133
4350,0.0
4471,202767.78223980894
2,1, 1, 1, 0,13, 0.00,60.00,Holiday
11,215791530.7868943
47,86100411.04130052
71,38180811.04130055
346,47919599.99999992
993,89913239.99999997
1017,89913239.99999997
1497,186519381.8582523
1533,11438885.168497468
1557,11438885.168497468
2228,7517993.264957458
2366,2466337.680428367
4114,32045745.16484859
4126,16519577.605455207
4162,14199365.105798254
4222,172614159.00932644
4235,15112.054748065697
4350,0.0
4471,199029.2610397617
2,1, 1, 1, 0,14, 0.00,60.00,Holiday
11,214572840.05527968
47,85846866.29845155
71,37927266.29845158
346,47919599.99999992
993,89913239.99999997
1017,89913239.99999997
1497,134468744.27736987
1533,0.0
1557,0.0
2228,7518695.74173226
2366,2516854.114582299
4114,31084033.45617061
4126,16519577.605455207
4162,14199365.105798254
4222,131951890.16278756
4235,11619.56849506296
4350,0.0
4471,198384.99043025235
2,1, 1, 1, 0,15, 0.00,60.00,Holiday
11,214751556.1483339
47,86338690.39436518
71,38419090.39436521
346,47919599.99999992
993,89913239.99999997
1017,89913239.99999997
1497,123341622.50304953
1533,0.0
1557,0.0
2228,7350255.015949528
2366,2406562.151901277
4114,30940776.407162835
4126,16519577.605455207
4162,14199365.105798254
4222,120935060.35114825
4235,10368.405712809481
4350,0.0
4471,198225.9251436729
2,1, 1, 1, 0,16, 0.00,60.00,Holiday
11,214393908.72037245
47,86065565.30307883
71,38145965.30307887
346,47919599.99999992
993,89913239.99999997
1017,89913239.99999997
1497,125452628.86743912
1533,0.0
1557,0.0
2228,7237140.968111546
2366,2438126.843199582
4114,30969070.97577516
4126,16550200.117456748
4162,14199365.105798254
4222,123014502.02423953
4235,10648.195940032281
4350,0.0
4471,198243.27746694949
2,1, 1, 1, 0,17, 0.00,60.00,Holiday
11,218046730.07968063
47,88928222.3859295
71,41008622.38592951
346,47919599.99999992
993,89913239.99999997
1017,89913239.99999997
1497,174400461.93150277
1533,28597212.921243654
1557,28597212.921243654
2228,7804273.344000593
2366,2467335.010341553
4114,31189017.479458505
4126,16576169.052911845
4162,14199365.105798254
4222,143335913.99991758
4235,13340.818567331116
4350,0.0
4471,198636.05172481464
2,1, 1, 1, 0,18, 0.00,60.00,Holiday
11,191703231.79528628
47,78647111.99999994
71,30727511.99999999
346,47919599.99999992
993,74424959.99999996
1017,74424959.99999996
1497,233923944.71550355
1533,28597212.921243654
1557,28597212.921243654
2228,6355895.791703314
2366,2422946.1347372385
4114,32054060.64032047
4126,16519577.605455207
4162,14199365.105798254
4222,202903785.65952266
4235,20216.93243722675
4350,0.0
4471,200986.43082540408
2,1, 1, 1, 0,19, 0.00,60.00,Holiday
11,243383262.67495237
47,106749035.99999982
71,15931835.999999995
346,90817199.99999984
993,101834279.99999984
1017,101834279.99999984
1497,203776105.59670375
1533,28597212.921243654
1557,28597212.921243654
2228,5673360.669485269
2366,1725216.1477444734
4114,28888283.12361694
4126,14487417.026481722
4162,14199365.105798254
4222,173453676.52771563
4235,30227.270161189852
4350,0.0
4471,208075.61168921556
2,1, 1, 1, 0,20, 0.00,60.00,Holiday
11,271574262.51528069
47,124250678.9999998
71,4835078.999999999
346,119415599.9999998
993,118816469.99999982
1017,118816469.99999982
1497,2185250.8191907119
1533,0.0
1557,0.0
2228,5843288.237967705
2366,2035644.9345931106
4114,22663825.27731323
4126,8458341.339612136
4162,14199365.105798254
4222,149605.88459760103
4235,0.0
4350,0.0
4471,0.0
2,1, 1, 1, 0,21, 0.00,60.00,Holiday
11,297995692.7320632
47,138549878.9999998
71,4835078.999999999
346,133714799.99999979
993,133115669.99999979
1017,133115669.99999979
1497,2093917.9057250177
1533,0.0
1557,0.0
2228,3666971.037093479
2366,1968403.315046887
4114,22663172.694970009
4126,8458341.339612136
4162,14199365.105798254
4222,125514.59067813098
4235,0.0
4350,0.0
4471,0.0
2,1, 1, 1, 0,22, 0.00,60.00,Holiday
11,269242374.02277669
47,124250678.9999998
71,4835078.999999999
346,119415599.9999998
993,118816469.99999982
1017,118816469.99999982
1497,1887795.7104269376
1533,0.0
1557,0.0
2228,3498216.5290381985
2366,1444798.2386932199
4114,22677008.493738735
4126,8458341.339612136
4162,14199365.105798254
4222,442997.4717337177
4235,0.0
4350,0.0
4471,0.0
2,1, 1, 1, 0,23, 0.00,60.00,Holiday
11,211012492.25997687
47,95652278.99999984
71,4835078.999999999
346,90817199.99999984
993,90218069.99999985
1017,90218069.99999985
1497,1260851.1288814736
1533,0.0
1557,0.0
2228,2484436.8145667004
2366,1260851.1288814736
4114,22657706.44541039
4126,8458341.339612136
4162,14199365.105798254
4222,0.0
4235,0.0
4350,0.0
4471,0.0
2,1, 1, 1, 0,24, 0.00,60.00,Holiday
11,123532974.03312975
47,52754678.99999992
71,4835078.999999999
346,47919599.99999992
993,47320469.999999929
1017,47320469.999999929
1497,1298453.3694192928
1533,0.0
1557,0.0
2228,800118.5877194065
2366,1298453.3694192928
4114,22657706.44541039
4126,8458341.339612136
4162,14199365.105798254
4222,0.0
4235,0.0
4350,0.0
4471,0.0
2,2, 1, 2, 0, 1, 0.00,60.00,Friday
11,66322812.04926312
47,24156278.99999996
71,4835078.999999999
346,19321199.999999968
993,18722069.99999997
1017,18722069.99999997
1497,1030181.2851976734
1533,0.0
1557,0.0
2228,786756.6038527791
2366,1030181.2851976734
4114,22657706.44541039
4126,8458341.339612136
4162,14199365.105798254
4222,0.0
4235,0.0
4350,0.0
4471,0.0
2,2, 1, 2, 0, 2, 0.00,60.00,Friday
11,67122741.8119027
47,24156278.99999996
71,4835078.999999999
346,19321199.999999968
993,18722069.99999997
1017,18722069.99999997
1497,1035402.4644752744
1533,0.0
1557,0.0
2228,1586686.3664923693
2366,1035402.4644752744
4114,22657706.44541039
4126,8458341.339612136
4162,14199365.105798254
4222,0.0
4235,0.0
4350,0.0
4471,0.0
2,2, 1, 2, 0, 3, 0.00,60.00,Friday
11,66329240.378159489
47,24156278.99999996
71,4835078.999999999
346,19321199.999999968
993,18722069.99999997
1017,18722069.99999997
1497,1035593.2144162208
1533,0.0
1557,0.0
2228,793184.9327491452
2366,1035593.2144162208
4114,22657706.44541039
4126,8458341.339612136
4162,14199365.105798254
4222,0.0
4235,0.0
4350,0.0
4471,0.0
2,2, 1, 2, 0, 4, 0.00,60.00,Friday
11,66341359.42730887
47,24156278.99999996
71,4835078.999999999
346,19321199.999999968
993,18722069.99999997
1017,18722069.99999997
1497,1442276.9985016874
1533,0.0
1557,0.0
2228,786812.7618867296
2366,1030487.9445976679
4114,22676197.665422195
4126,8458341.339612136
4162,14199365.105798254
4222,411789.0539040193
4235,0.0
4350,0.0
4471,0.0
2,2, 1, 2, 0, 5, 0.00,60.00,Friday
11,66444870.73996343
47,24156278.99999996
71,4835078.999999999
346,19321199.999999968
993,18722069.99999997
1017,18722069.99999997
1497,3851819.9716139577
1533,0.0
1557,0.0
2228,786700.0317711633
2366,1030534.0222742194
4114,22779821.708192324
4126,8458341.339612136
4162,14199365.105798254
4222,2821285.9493397378
4235,0.0
4350,0.0
4471,0.0
2,2, 1, 2, 0, 6, 0.00,60.00,Friday
11,127785968.14695437
47,53890838.99999992
71,5971238.999999999
346,47919599.99999992
993,47871269.999999929
1017,47871269.999999929
1497,64355636.123963419
1533,0.0
1557,0.0
2228,1239561.8252751856
2366,1037517.4697743425
4114,24784297.321679243
4126,10490501.918585619
4162,14199365.105798254
4222,63318118.65418908
4235,0.0
4350,0.0
4471,0.0
2,2, 1, 2, 0, 7, 0.00,60.00,Friday
11,203815275.19937287
47,80361638.99999988
71,5971238.999999999
346,74390399.99999988
993,69320069.9999999
1017,69320069.9999999
1497,767839465.5236279
1533,28597212.921243654
1557,28597212.921243654
2228,1120645.9675930297
2366,1293920.8788461008
4114,52268878.5884995
4126,22499280.065732708
4162,14199365.105798252
4222,737948331.7235382
4235,70767.24061947254
4350,0.0
4471,673274.4026610728
2,2, 1, 2, 0, 8, 0.00,60.00,Friday
11,221163512.4769625
47,95964111.53192374
71,21573711.53192386
346,74390399.99999988
993,83139479.99999988
1017,83139479.99999988
1497,540449358.7661605
1533,28882321.086319496
1557,28882321.086319496
2228,2599671.074609589
2366,1692231.041150786
4114,39143141.233989868
4126,16532174.66029026
4162,14199365.105798254
4222,509874806.6386902
4235,51043.37335832504
4350,0.0
4471,266065.2630810734
2,2, 1, 2, 0, 9, 0.00,60.00,Friday
11,281080760.3541192
47,125688277.73815033
71,51297877.73815045
346,74390399.99999988
993,112981499.99999987
1017,112981499.99999987
1497,409008496.3665361
1533,285108.16507584266
1557,285108.16507584266
2228,4679723.21303391
2366,2460103.3498093637
4114,37475660.440375749
4126,16519577.605455207
4162,14199365.105798254
4222,406263284.8516509
4235,36172.02435837319
4350,0.0
4471,219426.93820080933
2,2, 1, 2, 0,10, 0.00,60.00,Friday
11,339161632.6513815
47,150737670.9956237
71,76347270.99562377
346,74390399.99999988
993,143958059.99999995
1017,143958059.99999995
1497,347438350.2763951
1533,285108.16507584266
1557,285108.16507584266
2228,7198096.45671208
2366,2951966.886425028
4114,37031619.35865389
4126,16579228.233946048
4162,14199365.105798254
4222,344201275.22489419
4235,27055.677896390946
4350,0.0
4471,209130.16249557117
2,2, 1, 2, 0,11, 0.00,60.00,Friday
11,297790954.54183259
47,128775913.48189736
71,75834313.48189739
346,52941599.9999999
993,122509259.99999996
1017,122509259.99999996
1497,363163715.71631076
1533,513194.69713651677
1557,513194.69713651677
2228,7986325.780665055
2366,3142588.254495822
4114,38286113.51464781
4126,16686511.422797967
4162,14199365.105798254
4222,359507932.7646784
4235,25695.59451807572
4350,0.0
4471,207646.17010436633
2,2, 1, 2, 0,12, 0.00,60.00,Friday
11,299774505.1072035
47,127608335.58369696
71,74666735.58369699
346,52941599.9999999
993,122509259.99999996
1017,122509259.99999996
1497,326473184.6024947
1533,11952079.865633984
1557,11952079.865633984
2228,12422667.016872878
2366,4199232.686156636
4114,37007083.13735698
4126,16954219.862962746
4162,14199365.105798254
4222,310321872.05070409
4235,22757.610973390496
4350,0.0
4471,204401.75830333579
2,2, 1, 2, 0,13, 0.00,60.00,Friday
11,295039355.3814646
47,125474646.90102881
71,72533046.90102883
346,52941599.9999999
993,122509259.99999996
1017,122509259.99999996
1497,211431995.58035363
1533,11952079.865633984
1557,11952079.865633984
2228,12585332.483279724
2366,4607827.578290742
4114,34257271.55727214
4126,17272363.745698025
4162,14199365.105798254
4222,194872088.13642893
4235,13626.86711120648
4350,0.0
4471,199217.57277288743
2,2, 1, 2, 0,14, 0.00,60.00,Friday
11,292542374.0145314
47,124574876.94041291
71,71633276.94041293
346,52941599.9999999
993,122509259.99999996
1017,122509259.99999996
1497,116312890.00739652
1533,513194.69713651677
1557,513194.69713651677
2228,12665484.727123835
2366,4372480.343095256
4114,32586118.38616763
4126,17716499.532605955
4162,14199365.105798254
4222,111427214.96716474
4235,8474.615657912145
4350,0.0
4471,198159.34516916015
2,2, 1, 2, 0,15, 0.00,60.00,Friday
11,291235058.5929769
47,125193274.15726592
71,72251674.15726593
346,52941599.9999999
993,122509259.99999996
1017,122509259.99999996
1497,75722223.21798536
1533,427662.2476137639
1557,427662.2476137639
2228,10588739.428478167
2366,3574667.9913692248
4114,32740687.411460058
4126,18296121.09122645
4162,14199365.105798254
4222,71719892.97900239
4235,4744.048469164118
4350,0.0
4471,198353.54730376844
2,2, 1, 2, 0,16, 0.00,60.00,Friday
11,293611195.50924649
47,128552970.05184198
71,75611370.05184199
346,52941599.9999999
993,122509259.99999996
1017,122509259.99999996
1497,56587711.43108745
1533,427662.2476137639
1557,427662.2476137639
2228,8935074.211481013
2366,3525631.160078844
4114,33413074.437887044
4126,19004674.820311339
4162,14199365.105798254
4222,52634418.023394849
4235,2108.2030588620007
4350,0.0
4471,198708.60497764799
2,2, 1, 2, 0,17, 0.00,60.00,Friday
11,296428672.1242933
47,130475579.59582767
71,77533979.5958277
346,52941599.9999999
993,122509259.99999996
1017,122509259.99999996
1497,116502437.55137086
1533,29024875.168857416
1557,29024875.168857416
2228,9547972.621960519
2366,3618846.95779396
4114,33692235.03855012
4126,18904577.83789357
4162,14199365.105798254
4222,83858715.42471949
4235,5318.541925940077
4350,0.0
4471,198306.32602911976
2,2, 1, 2, 0,18, 0.00,60.00,Friday
11,286103668.29755827
47,123776342.99999996
71,70834742.99999997
346,52941599.9999999
993,118102859.99999997
1017,118102859.99999997
1497,190039502.90670134
1533,29024875.168857416
1557,29024875.168857416
2228,9835920.105301474
2366,3201146.263256351
4114,34179589.85965894
4126,18213548.223503468
4162,14199365.105798254
4222,157813481.47458757
4235,10693.868785007777
4350,0.0
4471,198261.463812893
2,2, 1, 2, 0,19, 0.00,60.00,Friday
11,319708703.22117069
47,143344268.99999986
71,47505068.99999999
346,95839199.99999984
993,135564839.99999989
1017,135564839.99999989
1497,200736159.86949534
1533,28597212.921243654
1557,28597212.921243654
2228,9228686.089325566
2366,3001590.0612678939
4114,31352336.81642566
4126,16812297.545406447
4162,14199365.105798254
4222,169137356.8869838
4235,18226.765574208403
4350,0.0
4471,200344.5498455403
2,2, 1, 2, 0,20, 0.00,60.00,Friday
11,373804782.0769685
47,171942668.99999974
71,47505068.99999999
346,124437599.9999998
993,164163239.99999974
1017,164163239.99999974
1497,164258004.03758187
1533,0.0
1557,0.0
2228,6605216.5914862039
2366,2495065.104395383
4114,30875053.912128107
4126,16643519.241441206
4162,14199365.105798254
4222,161762938.93318648
4235,18058.159014795303
4350,0.0
4471,200544.4143398046
2,2, 1, 2, 0,21, 0.00,60.00,Friday
11,387879166.02010217
47,180270629.9999997
71,41533829.999999988
346,138736799.9999998
993,169616699.99999974
1017,169616699.99999974
1497,179637568.66628034
1533,0.0
1557,0.0
2228,6971495.952515427
2366,2531462.2009311656
4114,30797357.40558075
4126,16566040.231645087
4162,14199365.105798254
4222,177106106.46534918
4235,20750.597916164945
4350,0.0
4471,202232.0640901833
2,2, 1, 2, 0,22, 0.00,60.00,Friday
11,305324734.1770027
47,143777915.9999998
71,19340315.999999998
346,124437599.9999998
993,132085079.9999998
1017,132085079.9999998
1497,64652821.61643532
1533,0.0
1557,0.0
2228,4676528.672319112
2366,1974819.6667718113
4114,24785209.504683898
4126,10490501.918585619
4162,14199365.105798254
4222,62678001.949663508
4235,0.0
4350,0.0
4471,0.0
2,2, 1, 2, 0,23, 0.00,60.00,Friday
11,214799340.783585
47,96788438.99999984
71,5971238.999999999
346,90817199.99999984
993,90768869.99999985
1017,90768869.99999985
1497,62084476.92921477
1533,0.0
1557,0.0
2228,2552164.759201413
2366,1427329.856029761
4114,24689867.024383874
4126,10490501.918585619
4162,14199365.105798254
4222,60657147.07318501
4235,0.0
4350,0.0
4471,0.0
2,2, 1, 2, 0,24, 0.00,60.00,Friday
11,126782337.02760917
47,52754678.99999992
71,4835078.999999999
346,47919599.99999992
993,47320469.999999929
1017,47320469.999999929
1497,61926495.33912641
1533,0.0
1557,0.0
2228,2017321.003225335
2366,1239065.6134277413
4114,24689867.024383874
4126,10490501.918585619
4162,14199365.105798254
4222,60687429.72569867
4235,0.0
4350,0.0
4471,0.0
2,3, 1, 3, 0, 1, 0.00,60.00,Saturday
11,67643056.4280248
47,24156278.99999996
71,4835078.999999999
346,19321199.999999968
993,18722069.99999997
1017,18722069.99999997
1497,1335478.958644223
1533,0.0
1557,0.0
2228,2107000.982614469
2366,1335478.958644223
4114,22657706.44541039
4126,8458341.339612136
4162,14199365.105798254
4222,0.0
4235,0.0
4350,0.0
4471,0.0
2,3, 1, 3, 0, 2, 0.00,60.00,Saturday
11,68020477.5810625
47,24156278.99999996
71,4835078.999999999
346,19321199.999999968
993,18722069.99999997
1017,18722069.99999997
1497,1328443.3153903664
1533,0.0
1557,0.0
2228,2484422.135652165
2366,1328443.3153903664
4114,22657706.44541039
4126,8458341.339612136
4162,14199365.105798254
4222,0.0
4235,0.0
4350,0.0
4471,0.0
2,3, 1, 3, 0, 3, 0.00,60.00,Saturday
11,67198872.49064794
47,24156278.99999996
71,4835078.999999999
346,19321199.999999968
993,18722069.99999997
1017,18722069.99999997
1497,2085570.8214826072
1533,0.0
1557,0.0
2228,1627944.7029228886
2366,1314806.039975637
4114,22692578.787725115
4126,8458341.339612136
4162,14199365.105798254
4222,770764.7815069702
4235,0.0
4350,0.0
4471,0.0
2,3, 1, 3, 0, 4, 0.00,60.00,Saturday
11,66862558.6705177
47,24156278.99999996
71,4835078.999999999
346,19321199.999999968
993,18722069.99999997
1017,18722069.99999997
1497,7516366.022270411
1533,0.0
1557,0.0
2228,1044723.2242225197
2366,1040784.6466655135
4114,22939486.446295229
4126,8458341.339612136
4162,14199365.105798254
4222,6475581.375604898
4235,0.0
4350,0.0
4471,0.0
2,3, 1, 3, 0, 5, 0.00,60.00,Saturday
11,67961905.33285922
47,24156278.99999996
71,4835078.999999999
346,19321199.999999968
993,18722069.99999997
1017,18722069.99999997
1497,24847563.528499534
1533,0.0
1557,0.0
2228,1355430.9245028375
2366,1041115.3078052542
4114,23728125.40835643
4126,8458341.339612136
4162,14199365.105798254
4222,23806448.22069428
4235,0.0
4350,0.0
4471,0.0
2,3, 1, 3, 0, 6, 0.00,60.00,Saturday
11,127638905.64473821
47,52754678.99999992
71,4835078.999999999
346,47919599.99999992
993,47320469.999999929
1017,47320469.999999929
1497,90884028.59241815
1533,0.0
1557,0.0
2228,1600173.5669196728
2366,1309938.714859167
4114,25963583.07781858
4126,10490501.918585619
4162,14199365.105798254
4222,89574089.87755898
4235,0.0
4350,0.0
4471,0.0
2,3, 1, 3, 0, 7, 0.00,60.00,Saturday
11,211977585.63780589
47,80361638.99999988
71,5971238.999999999
346,74390399.99999988
993,69320069.9999999
1017,69320069.9999999
1497,1020571310.9167984
1533,28597212.921243654
1557,28597212.921243654
2228,1613761.225880031
2366,1222139.326028117
4114,59930553.93194905
4126,19736745.276587599
4162,14199365.105798254
4222,990751958.6695266
4235,80354.47526912629
4350,0.0
4471,671207.0047079056
2,3, 1, 3, 0, 8, 0.00,60.00,Saturday
11,205348896.56156425
47,83681716.29360229
71,9291316.293602404
346,74390399.99999988
993,73192139.99999988
1017,73192139.99999988
1497,711760271.699991
1533,28597212.921243654
1557,28597212.921243654
2228,3632005.9572731556
2366,1806214.1343176068
4114,44409555.082440268
4126,16519577.605455207
4162,14199365.105798254
4222,681356844.6444297
4235,66546.68814482082
4350,0.0
4471,366932.5401037887
2,3, 1, 3, 0, 9, 0.00,60.00,Saturday
11,236668620.53209836
47,101608701.87187383
71,27218301.87187397
346,74390399.99999988
993,90883619.99999987
1017,90883619.99999987
1497,514709728.2836384
1533,285108.16507584266
1557,285108.16507584266
2228,5086191.334904938
2366,2056741.3660667618
4114,38737011.44957695
4126,16519577.605455207
4162,14199365.105798254
4222,512367878.75249579
4235,54487.30524774317
4350,0.0
4471,298608.570494993
2,3, 1, 3, 0,10, 0.00,60.00,Saturday
11,275627572.92702
47,119120512.56192014
71,44730112.56192027
346,74390399.99999988
993,114116039.99999988
1017,114116039.99999988
1497,406201051.03965809
1533,285108.16507584266
1557,285108.16507584266
2228,5473292.054309759
2366,2429531.0255194564
4114,36626031.61763677
4126,16563811.505226082
4162,14199365.105798254
4222,403486411.84906277
4235,40167.139271623695
4350,0.0
4471,251529.55388180924
2,3, 1, 3, 0,11, 0.00,60.00,Saturday
11,279656034.7884872
47,117599968.66389919
71,64658368.66389921
346,52941599.9999999
993,115899659.99999997
1017,115899659.99999997
1497,381224387.76985326
1533,513194.69713651677
1557,513194.69713651677
2228,9227886.191776138
2366,2984582.3592305018
4114,36660139.10487448
4126,16754757.956003223
4162,14199365.105798254
4222,377726610.7134862
4235,35424.22178896252
4350,0.0
4471,232956.606148518
2,3, 1, 3, 0,12, 0.00,60.00,Saturday
11,279572411.0028655
47,117115843.4583424
71,64174243.45834242
346,52941599.9999999
993,115899659.99999997
1017,115899659.99999997
1497,330518137.70388618
1533,11952079.865633984
1557,11952079.865633984
2228,10821849.26463853
2366,3642546.4829558308
4114,35489353.812192518
4126,17082066.564715666
4162,14199365.105798254
4222,314923511.35529628
4235,29560.830967395974
4350,0.0
4471,216143.6367247273
2,3, 1, 3, 0,13, 0.00,60.00,Saturday
11,274979511.04298236
47,113196905.75203634
71,60255305.752036359
346,52941599.9999999
993,114247259.99999997
1017,114247259.99999997
1497,266174843.63103537
1533,11952079.865633984
1557,11952079.865633984
2228,12285657.634243653
2366,3707463.9744047208
4114,35007505.43251766
4126,17831634.346501955
4162,14199365.105798254
4222,250515299.79099665
4235,22519.165098584373
4350,15125.489207178083
4471,204537.56987893047
2,3, 1, 3, 0,14, 0.00,60.00,Saturday
11,275617404.10273179
47,113312831.04575908
71,60371231.0457591
346,52941599.9999999
993,114247259.99999997
1017,114247259.99999997
1497,221417160.47534503
1533,513194.69713651677
1557,513194.69713651677
2228,12689329.099914089
2366,3741164.742474581
4114,34924679.93967044
4126,18505148.809536034
4162,14199365.105798254
4222,217162801.03573389
4235,19266.430699606197
4350,222704.1659459707
4471,201333.42074267788
2,3, 1, 3, 0,15, 0.00,60.00,Saturday
11,274916643.8736217
47,114295195.01920848
71,61353595.019208509
346,52941599.9999999
993,114247259.99999997
1017,114247259.99999997
1497,200940244.4518497
1533,427662.2476137639
1557,427662.2476137639
2228,10091726.74062977
2366,3135388.168312449
4114,35227331.85123093
4126,19175632.717663394
4162,14199365.105798254
4222,197377194.03592349
4235,17261.470694584576
4350,837790.3787647726
4471,200078.41309325386
2,3, 1, 3, 0,16, 0.00,60.00,Saturday
11,274181833.83414617
47,113480953.86090067
71,60539353.86090069
346,52941599.9999999
993,114247259.99999997
1017,114247259.99999997
1497,211690565.8470055
1533,427662.2476137639
1557,427662.2476137639
2228,9957329.701798372
2366,3043054.876325748
4114,35676694.33632643
4126,19572811.780130134
4162,14199365.105798254
4222,208219848.72306598
4235,18699.15932055142
4350,600232.9863465589
4471,200663.78945369856
2,3, 1, 3, 0,17, 0.00,60.00,Saturday
11,278529509.109447
47,117645370.8848575
71,64703770.88485752
346,52941599.9999999
993,114247259.99999997
1017,114247259.99999997
1497,275345811.30698665
1533,29024875.168857416
1557,29024875.168857416
2228,9828183.894851663
2366,3040412.9216906127
4114,36563124.07363117
4126,19755080.29617284
4162,14199365.105798256
4222,243280523.2164386
4235,21768.188389660216
4350,20834.455548155827
4471,202967.61216894818
2,3, 1, 3, 0,18, 0.00,60.00,Saturday
11,272353328.7703389
47,111937382.99999996
71,64017782.99999998
346,47919599.99999992
993,113145659.99999997
1017,113145659.99999997
1497,336954432.86971369
1533,28597212.921243654
1557,28597212.921243654
2228,9698558.483095253
2366,2960586.952229684
4114,37337443.33640308
4126,18813996.22334059
4162,14199365.105798254
4222,305396632.9962404
4235,26439.282482930037
4350,0.0
4471,207844.66835778539
2,3, 1, 3, 0,19, 0.00,60.00,Saturday
11,296529728.46221587
47,128942549.99999987
71,38125349.999999988
346,90817199.99999984
993,125066699.99999988
1017,125066699.99999988
1497,361202946.76497587
1533,28597212.921243654
1557,28597212.921243654
2228,8572124.450988125
2366,2923147.2372841185
4114,33677110.58345753
4126,16558415.212780608
4162,14199365.105798254
4222,329682586.60644808
4235,36554.255119227004
4350,0.0
4471,234689.17265116637
2,3, 1, 3, 0,20, 0.00,60.00,Saturday
11,318905091.6527703
47,142745273.9999998
71,23329673.999999994
346,119415599.9999998
993,138176819.9999998
1017,138176819.9999998
1497,257892528.8073187
1533,0.0
1557,0.0
2228,7368435.996007899
2366,2471443.1562662378
4114,30322435.006042344
4126,14487417.026481722
4162,14199365.105798254
4222,255421085.65105246
4235,39756.38060625967
4350,0.0
4471,252370.27011414508
2,3, 1, 3, 0,21, 0.00,60.00,Saturday
11,346338987.29793688
47,157044473.99999977
71,23329673.999999994
346,133714799.99999979
993,152476019.99999977
1017,152476019.99999977
1497,279524164.37096676
1533,0.0
1557,0.0
2228,6229140.162642219
2366,2074874.2066378138
4114,30267552.208803394
4126,14487417.026481722
4162,14199365.105798254
4222,277449290.1643289
4235,44943.865656986716
4350,0.0
4471,276857.0608345879
2,3, 1, 3, 0,22, 0.00,60.00,Saturday
11,287177750.54299679
47,127949597.9999998
71,8533997.999999999
346,119415599.9999998
993,122688539.9999998
1017,122688539.9999998
1497,358307442.7233097
1533,0.0
1557,0.0
2228,4382488.268975297
2366,2003519.4243741187
4114,31784236.620443915
4126,14487417.026481722
4162,14199365.105798254
4222,356303923.29893556