Program Version,EnergyPlus, Version 9.0.1-bb7ca4f0da, YMD=2019.12.17 17:02
1,5,Environment Title[],Latitude[deg],Longitude[deg],Time Zone[],Elevation[m]
2,8,Day of Simulation[],Month[],Day of Month[],DST Indicator[1=yes 0=no],Hour[],StartMinute[],EndMinute[],DayType
3,5,Cumulative Day of Simulation[],Month[],Day of Month[],DST Indicator[1=yes 0=no],DayType  ! When Daily Report Variables Requested
4,2,Cumulative Days of Simulation[],Month[]  ! When Monthly Report Variables Requested
5,1,Cumulative Days of Simulation[] ! When Run Period Report Variables Requested
6,1,Calendar Year of Simulation[] ! When Annual Report Variables Requested
7,1,Environment,Site Outdoor Air Drybulb Temperature [C] !TimeStep
4438,1,BASE BLR,Boiler Heating Rate [W] !Hourly
End of Data Dictionary
1,SANTA-ROSA(AWOS) ANN CLG 0.4% CONDNS DB=>MCWB,  38.51,-122.81,  -8.00,  45.00
2,1, 7,21, 0, 1, 0.00,15.00,SummerDesignDay
7,22.0565
2,1, 7,21, 0, 1,15.00,30.00,SummerDesignDay
7,21.814999999999999
2,1, 7,21, 0, 1,30.00,45.00,SummerDesignDay
7,21.5735
2,1, 7,21, 0, 1,45.00,60.00,SummerDesignDay
7,21.332
2,1, 7,21, 0, 1, 0.00,60.00,SummerDesignDay
4438,0.0
2,1, 7,21, 0, 2, 0.00,15.00,SummerDesignDay
7,21.171
2,1, 7,21, 0, 2,15.00,30.00,SummerDesignDay
7,21.009999999999999
2,1, 7,21, 0, 2,30.00,45.00,SummerDesignDay
7,20.848999999999998
2,1, 7,21, 0, 2,45.00,60.00,SummerDesignDay
7,20.688
2,1, 7,21, 0, 2, 0.00,60.00,SummerDesignDay
4438,0.0
2,1, 7,21, 0, 3, 0.00,15.00,SummerDesignDay
7,20.56725
2,1, 7,21, 0, 3,15.00,30.00,SummerDesignDay
7,20.4465
2,1, 7,21, 0, 3,30.00,45.00,SummerDesignDay
7,20.32575
2,1, 7,21, 0, 3,45.00,60.00,SummerDesignDay
7,20.205
2,1, 7,21, 0, 3, 0.00,60.00,SummerDesignDay
4438,0.0
2,1, 7,21, 0, 4, 0.00,15.00,SummerDesignDay
7,20.08425
2,1, 7,21, 0, 4,15.00,30.00,SummerDesignDay
7,19.9635
2,1, 7,21, 0, 4,30.00,45.00,SummerDesignDay
7,19.842750000000004
2,1, 7,21, 0, 4,45.00,60.00,SummerDesignDay
7,19.722
2,1, 7,21, 0, 4, 0.00,60.00,SummerDesignDay
4438,0.0
2,1, 7,21, 0, 5, 0.00,15.00,SummerDesignDay
7,19.6415
2,1, 7,21, 0, 5,15.00,30.00,SummerDesignDay
7,19.561
2,1, 7,21, 0, 5,30.00,45.00,SummerDesignDay
7,19.4805
2,1, 7,21, 0, 5,45.00,60.00,SummerDesignDay
7,19.4
2,1, 7,21, 0, 5, 0.00,60.00,SummerDesignDay
4438,0.0
2,1, 7,21, 0, 6, 0.00,15.00,SummerDesignDay
7,19.4805
2,1, 7,21, 0, 6,15.00,30.00,SummerDesignDay
7,19.561
2,1, 7,21, 0, 6,30.00,45.00,SummerDesignDay
7,19.6415
2,1, 7,21, 0, 6,45.00,60.00,SummerDesignDay
7,19.722
2,1, 7,21, 0, 6, 0.00,60.00,SummerDesignDay
4438,0.0
2,1, 7,21, 0, 7, 0.00,15.00,SummerDesignDay
7,20.003749999999998
2,1, 7,21, 0, 7,15.00,30.00,SummerDesignDay
7,20.2855
2,1, 7,21, 0, 7,30.00,45.00,SummerDesignDay
7,20.56725
2,1, 7,21, 0, 7,45.00,60.00,SummerDesignDay
7,20.848999999999998
2,1, 7,21, 0, 7, 0.00,60.00,SummerDesignDay
4438,0.0
2,1, 7,21, 0, 8, 0.00,15.00,SummerDesignDay
7,21.53325
2,1, 7,21, 0, 8,15.00,30.00,SummerDesignDay
7,22.2175
2,1, 7,21, 0, 8,30.00,45.00,SummerDesignDay
7,22.90175
2,1, 7,21, 0, 8,45.00,60.00,SummerDesignDay
7,23.586
2,1, 7,21, 0, 8, 0.00,60.00,SummerDesignDay
4438,0.0
2,1, 7,21, 0, 9, 0.00,15.00,SummerDesignDay
7,24.35075
2,1, 7,21, 0, 9,15.00,30.00,SummerDesignDay
7,25.115499999999999
2,1, 7,21, 0, 9,30.00,45.00,SummerDesignDay
7,25.880249999999998
2,1, 7,21, 0, 9,45.00,60.00,SummerDesignDay
7,26.644999999999997
2,1, 7,21, 0, 9, 0.00,60.00,SummerDesignDay
4438,0.0
2,1, 7,21, 0,10, 0.00,15.00,SummerDesignDay
7,27.32925
2,1, 7,21, 0,10,15.00,30.00,SummerDesignDay
7,28.0135
2,1, 7,21, 0,10,30.00,45.00,SummerDesignDay
7,28.69775
2,1, 7,21, 0,10,45.00,60.00,SummerDesignDay
7,29.381999999999999
2,1, 7,21, 0,10, 0.00,60.00,SummerDesignDay
4438,0.0
2,1, 7,21, 0,11, 0.00,15.00,SummerDesignDay
7,29.98575
2,1, 7,21, 0,11,15.00,30.00,SummerDesignDay
7,30.5895
2,1, 7,21, 0,11,30.00,45.00,SummerDesignDay
7,31.19325
2,1, 7,21, 0,11,45.00,60.00,SummerDesignDay
7,31.797
2,1, 7,21, 0,11, 0.00,60.00,SummerDesignDay
4438,0.0
2,1, 7,21, 0,12, 0.00,15.00,SummerDesignDay
7,32.1995
2,1, 7,21, 0,12,15.00,30.00,SummerDesignDay
7,32.602
2,1, 7,21, 0,12,30.00,45.00,SummerDesignDay
7,33.0045
2,1, 7,21, 0,12,45.00,60.00,SummerDesignDay
7,33.407
2,1, 7,21, 0,12, 0.00,60.00,SummerDesignDay
4438,0.0
2,1, 7,21, 0,13, 0.00,15.00,SummerDesignDay
7,33.729
2,1, 7,21, 0,13,15.00,30.00,SummerDesignDay
7,34.051
2,1, 7,21, 0,13,30.00,45.00,SummerDesignDay
7,34.373
2,1, 7,21, 0,13,45.00,60.00,SummerDesignDay
7,34.695
2,1, 7,21, 0,13, 0.00,60.00,SummerDesignDay
4438,0.0
2,1, 7,21, 0,14, 0.00,15.00,SummerDesignDay
7,34.89625
2,1, 7,21, 0,14,15.00,30.00,SummerDesignDay
7,35.0975
2,1, 7,21, 0,14,30.00,45.00,SummerDesignDay
7,35.29875
2,1, 7,21, 0,14,45.00,60.00,SummerDesignDay
7,35.5
2,1, 7,21, 0,14, 0.00,60.00,SummerDesignDay
4438,0.0
2,1, 7,21, 0,15, 0.00,15.00,SummerDesignDay
7,35.5
2,1, 7,21, 0,15,15.00,30.00,SummerDesignDay
7,35.5
2,1, 7,21, 0,15,30.00,45.00,SummerDesignDay
7,35.5
2,1, 7,21, 0,15,45.00,60.00,SummerDesignDay
7,35.5
2,1, 7,21, 0,15, 0.00,60.00,SummerDesignDay
4438,0.0
2,1, 7,21, 0,16, 0.00,15.00,SummerDesignDay
7,35.2585
2,1, 7,21, 0,16,15.00,30.00,SummerDesignDay
7,35.017
2,1, 7,21, 0,16,30.00,45.00,SummerDesignDay
7,34.7755
2,1, 7,21, 0,16,45.00,60.00,SummerDesignDay
7,34.534
2,1, 7,21, 0,16, 0.00,60.00,SummerDesignDay
4438,0.0
2,1, 7,21, 0,17, 0.00,15.00,SummerDesignDay
7,34.212
2,1, 7,21, 0,17,15.00,30.00,SummerDesignDay
7,33.89
2,1, 7,21, 0,17,30.00,45.00,SummerDesignDay
7,33.568
2,1, 7,21, 0,17,45.00,60.00,SummerDesignDay
7,33.246
2,1, 7,21, 0,17, 0.00,60.00,SummerDesignDay
4438,0.0
2,1, 7,21, 0,18, 0.00,15.00,SummerDesignDay
7,32.8435
2,1, 7,21, 0,18,15.00,30.00,SummerDesignDay
7,32.441
2,1, 7,21, 0,18,30.00,45.00,SummerDesignDay
7,32.0385
2,1, 7,21, 0,18,45.00,60.00,SummerDesignDay
7,31.636
2,1, 7,21, 0,18, 0.00,60.00,SummerDesignDay
4438,0.0
2,1, 7,21, 0,19, 0.00,15.00,SummerDesignDay
7,31.03225
2,1, 7,21, 0,19,15.00,30.00,SummerDesignDay
7,30.4285
2,1, 7,21, 0,19,30.00,45.00,SummerDesignDay
7,29.82475
2,1, 7,21, 0,19,45.00,60.00,SummerDesignDay
7,29.221
2,1, 7,21, 0,19, 0.00,60.00,SummerDesignDay
4438,0.0
2,1, 7,21, 0,20, 0.00,15.00,SummerDesignDay
7,28.77825
2,1, 7,21, 0,20,15.00,30.00,SummerDesignDay
7,28.3355
2,1, 7,21, 0,20,30.00,45.00,SummerDesignDay
7,27.89275
2,1, 7,21, 0,20,45.00,60.00,SummerDesignDay
7,27.45
2,1, 7,21, 0,20, 0.00,60.00,SummerDesignDay
4438,0.0
2,1, 7,21, 0,21, 0.00,15.00,SummerDesignDay
7,27.08775
2,1, 7,21, 0,21,15.00,30.00,SummerDesignDay
7,26.7255
2,1, 7,21, 0,21,30.00,45.00,SummerDesignDay
7,26.36325
2,1, 7,21, 0,21,45.00,60.00,SummerDesignDay
7,26.000999999999999
2,1, 7,21, 0,21, 0.00,60.00,SummerDesignDay
4438,0.0
2,1, 7,21, 0,22, 0.00,15.00,SummerDesignDay
7,25.638749999999999
2,1, 7,21, 0,22,15.00,30.00,SummerDesignDay
7,25.2765
2,1, 7,21, 0,22,30.00,45.00,SummerDesignDay
7,24.91425
2,1, 7,21, 0,22,45.00,60.00,SummerDesignDay
7,24.552
2,1, 7,21, 0,22, 0.00,60.00,SummerDesignDay
4438,0.0
2,1, 7,21, 0,23, 0.00,15.00,SummerDesignDay
7,24.270249999999998
2,1, 7,21, 0,23,15.00,30.00,SummerDesignDay
7,23.9885
2,1, 7,21, 0,23,30.00,45.00,SummerDesignDay
7,23.70675
2,1, 7,21, 0,23,45.00,60.00,SummerDesignDay
7,23.424999999999998
2,1, 7,21, 0,23, 0.00,60.00,SummerDesignDay
4438,0.0
2,1, 7,21, 0,24, 0.00,15.00,SummerDesignDay
7,23.143250000000003
2,1, 7,21, 0,24,15.00,30.00,SummerDesignDay
7,22.8615
2,1, 7,21, 0,24,30.00,45.00,SummerDesignDay
7,22.579749999999998
2,1, 7,21, 0,24,45.00,60.00,SummerDesignDay
7,22.298000000000003
2,1, 7,21, 0,24, 0.00,60.00,SummerDesignDay
4438,0.0
1,SANTA-ROSA(AWOS) ANN CLG 0.4% CONDNS DP=>MCDB,  38.51,-122.81,  -8.00,  45.00
2,1, 7,21, 0, 1, 0.00,15.00,SummerDesignDay
7,11.5565
2,1, 7,21, 0, 1,15.00,30.00,SummerDesignDay
7,11.315
2,1, 7,21, 0, 1,30.00,45.00,SummerDesignDay
7,11.0735
2,1, 7,21, 0, 1,45.00,60.00,SummerDesignDay
7,10.831999999999999
2,1, 7,21, 0, 1, 0.00,60.00,SummerDesignDay
4438,6124.707938259993
2,1, 7,21, 0, 2, 0.00,15.00,SummerDesignDay
7,10.671
2,1, 7,21, 0, 2,15.00,30.00,SummerDesignDay
7,10.509999999999998
2,1, 7,21, 0, 2,30.00,45.00,SummerDesignDay
7,10.348999999999999
2,1, 7,21, 0, 2,45.00,60.00,SummerDesignDay
7,10.187999999999999
2,1, 7,21, 0, 2, 0.00,60.00,SummerDesignDay
4438,9878.272466605722
2,1, 7,21, 0, 3, 0.00,15.00,SummerDesignDay
7,10.06725
2,1, 7,21, 0, 3,15.00,30.00,SummerDesignDay
7,9.946499999999999
2,1, 7,21, 0, 3,30.00,45.00,SummerDesignDay
7,9.825750000000001
2,1, 7,21, 0, 3,45.00,60.00,SummerDesignDay
7,9.705
2,1, 7,21, 0, 3, 0.00,60.00,SummerDesignDay
4438,12398.251910603449
2,1, 7,21, 0, 4, 0.00,15.00,SummerDesignDay
7,9.58425
2,1, 7,21, 0, 4,15.00,30.00,SummerDesignDay
7,9.4635
2,1, 7,21, 0, 4,30.00,45.00,SummerDesignDay
7,9.34275
2,1, 7,21, 0, 4,45.00,60.00,SummerDesignDay
7,9.222
2,1, 7,21, 0, 4, 0.00,60.00,SummerDesignDay
4438,14461.705556611634
2,1, 7,21, 0, 5, 0.00,15.00,SummerDesignDay
7,9.141499999999999
2,1, 7,21, 0, 5,15.00,30.00,SummerDesignDay
7,9.060999999999999
2,1, 7,21, 0, 5,30.00,45.00,SummerDesignDay
7,8.9805
2,1, 7,21, 0, 5,45.00,60.00,SummerDesignDay
7,8.899999999999999
2,1, 7,21, 0, 5, 0.00,60.00,SummerDesignDay
4438,16064.531350673215
2,1, 7,21, 0, 6, 0.00,15.00,SummerDesignDay
7,8.9805
2,1, 7,21, 0, 6,15.00,30.00,SummerDesignDay
7,9.060999999999999
2,1, 7,21, 0, 6,30.00,45.00,SummerDesignDay
7,9.141499999999999
2,1, 7,21, 0, 6,45.00,60.00,SummerDesignDay
7,9.222
2,1, 7,21, 0, 6, 0.00,60.00,SummerDesignDay
4438,12455.554581757424
2,1, 7,21, 0, 7, 0.00,15.00,SummerDesignDay
7,9.503749999999999
2,1, 7,21, 0, 7,15.00,30.00,SummerDesignDay
7,9.785499999999998
2,1, 7,21, 0, 7,30.00,45.00,SummerDesignDay
7,10.06725
2,1, 7,21, 0, 7,45.00,60.00,SummerDesignDay
7,10.348999999999999
2,1, 7,21, 0, 7, 0.00,60.00,SummerDesignDay
4438,421.7604313106963
2,1, 7,21, 0, 8, 0.00,15.00,SummerDesignDay
7,11.033249999999999
2,1, 7,21, 0, 8,15.00,30.00,SummerDesignDay
7,11.7175
2,1, 7,21, 0, 8,30.00,45.00,SummerDesignDay
7,12.40175
2,1, 7,21, 0, 8,45.00,60.00,SummerDesignDay
7,13.085999999999999
2,1, 7,21, 0, 8, 0.00,60.00,SummerDesignDay
4438,0.0
2,1, 7,21, 0, 9, 0.00,15.00,SummerDesignDay
7,13.850750000000002
2,1, 7,21, 0, 9,15.00,30.00,SummerDesignDay
7,14.615499999999999
2,1, 7,21, 0, 9,30.00,45.00,SummerDesignDay
7,15.380249999999999
2,1, 7,21, 0, 9,45.00,60.00,SummerDesignDay
7,16.144999999999997
2,1, 7,21, 0, 9, 0.00,60.00,SummerDesignDay
4438,0.0
2,1, 7,21, 0,10, 0.00,15.00,SummerDesignDay
7,16.82925
2,1, 7,21, 0,10,15.00,30.00,SummerDesignDay
7,17.5135
2,1, 7,21, 0,10,30.00,45.00,SummerDesignDay
7,18.19775
2,1, 7,21, 0,10,45.00,60.00,SummerDesignDay
7,18.881999999999999
2,1, 7,21, 0,10, 0.00,60.00,SummerDesignDay
4438,0.0
2,1, 7,21, 0,11, 0.00,15.00,SummerDesignDay
7,19.48575
2,1, 7,21, 0,11,15.00,30.00,SummerDesignDay
7,20.0895
2,1, 7,21, 0,11,30.00,45.00,SummerDesignDay
7,20.69325
2,1, 7,21, 0,11,45.00,60.00,SummerDesignDay
7,21.297
2,1, 7,21, 0,11, 0.00,60.00,SummerDesignDay
4438,0.0
2,1, 7,21, 0,12, 0.00,15.00,SummerDesignDay
7,21.6995
2,1, 7,21, 0,12,15.00,30.00,SummerDesignDay
7,22.102
2,1, 7,21, 0,12,30.00,45.00,SummerDesignDay
7,22.5045
2,1, 7,21, 0,12,45.00,60.00,SummerDesignDay
7,22.907
2,1, 7,21, 0,12, 0.00,60.00,SummerDesignDay
4438,0.0
2,1, 7,21, 0,13, 0.00,15.00,SummerDesignDay
7,23.229
2,1, 7,21, 0,13,15.00,30.00,SummerDesignDay
7,23.551
2,1, 7,21, 0,13,30.00,45.00,SummerDesignDay
7,23.873
2,1, 7,21, 0,13,45.00,60.00,SummerDesignDay
7,24.195
2,1, 7,21, 0,13, 0.00,60.00,SummerDesignDay
4438,4.425109216683034
2,1, 7,21, 0,14, 0.00,15.00,SummerDesignDay
7,24.39625
2,1, 7,21, 0,14,15.00,30.00,SummerDesignDay
7,24.5975
2,1, 7,21, 0,14,30.00,45.00,SummerDesignDay
7,24.79875
2,1, 7,21, 0,14,45.00,60.00,SummerDesignDay
7,25.0
2,1, 7,21, 0,14, 0.00,60.00,SummerDesignDay
4438,37.31705019832584
2,1, 7,21, 0,15, 0.00,15.00,SummerDesignDay
7,25.0
2,1, 7,21, 0,15,15.00,30.00,SummerDesignDay
7,25.0
2,1, 7,21, 0,15,30.00,45.00,SummerDesignDay
7,25.0
2,1, 7,21, 0,15,45.00,60.00,SummerDesignDay
7,25.0
2,1, 7,21, 0,15, 0.00,60.00,SummerDesignDay
4438,53.03298031570471
2,1, 7,21, 0,16, 0.00,15.00,SummerDesignDay
7,24.7585
2,1, 7,21, 0,16,15.00,30.00,SummerDesignDay
7,24.517
2,1, 7,21, 0,16,30.00,45.00,SummerDesignDay
7,24.2755
2,1, 7,21, 0,16,45.00,60.00,SummerDesignDay
7,24.034
2,1, 7,21, 0,16, 0.00,60.00,SummerDesignDay
4438,61.785926689748297
2,1, 7,21, 0,17, 0.00,15.00,SummerDesignDay
7,23.712
2,1, 7,21, 0,17,15.00,30.00,SummerDesignDay
7,23.39
2,1, 7,21, 0,17,30.00,45.00,SummerDesignDay
7,23.067999999999999
2,1, 7,21, 0,17,45.00,60.00,SummerDesignDay
7,22.746
2,1, 7,21, 0,17, 0.00,60.00,SummerDesignDay
4438,76.6943822202358
2,1, 7,21, 0,18, 0.00,15.00,SummerDesignDay
7,22.3435
2,1, 7,21, 0,18,15.00,30.00,SummerDesignDay
7,21.941
2,1, 7,21, 0,18,30.00,45.00,SummerDesignDay
7,21.5385
2,1, 7,21, 0,18,45.00,60.00,SummerDesignDay
7,21.136
2,1, 7,21, 0,18, 0.00,60.00,SummerDesignDay
4438,99.37618880919055
2,1, 7,21, 0,19, 0.00,15.00,SummerDesignDay
7,20.53225
2,1, 7,21, 0,19,15.00,30.00,SummerDesignDay
7,19.9285
2,1, 7,21, 0,19,30.00,45.00,SummerDesignDay
7,19.32475
2,1, 7,21, 0,19,45.00,60.00,SummerDesignDay
7,18.721
2,1, 7,21, 0,19, 0.00,60.00,SummerDesignDay
4438,133.50832253520162
2,1, 7,21, 0,20, 0.00,15.00,SummerDesignDay
7,18.27825
2,1, 7,21, 0,20,15.00,30.00,SummerDesignDay
7,17.8355
2,1, 7,21, 0,20,30.00,45.00,SummerDesignDay
7,17.39275
2,1, 7,21, 0,20,45.00,60.00,SummerDesignDay
7,16.95
2,1, 7,21, 0,20, 0.00,60.00,SummerDesignDay
4438,179.00589017497516
2,1, 7,21, 0,21, 0.00,15.00,SummerDesignDay
7,16.58775
2,1, 7,21, 0,21,15.00,30.00,SummerDesignDay
7,16.2255
2,1, 7,21, 0,21,30.00,45.00,SummerDesignDay
7,15.863249999999999
2,1, 7,21, 0,21,45.00,60.00,SummerDesignDay
7,15.501
2,1, 7,21, 0,21, 0.00,60.00,SummerDesignDay
4438,224.15268848964264
2,1, 7,21, 0,22, 0.00,15.00,SummerDesignDay
7,15.138749999999999
2,1, 7,21, 0,22,15.00,30.00,SummerDesignDay
7,14.776499999999999
2,1, 7,21, 0,22,30.00,45.00,SummerDesignDay
7,14.41425
2,1, 7,21, 0,22,45.00,60.00,SummerDesignDay
7,14.051999999999998
2,1, 7,21, 0,22, 0.00,60.00,SummerDesignDay
4438,0.0
2,1, 7,21, 0,23, 0.00,15.00,SummerDesignDay
7,13.770249999999999
2,1, 7,21, 0,23,15.00,30.00,SummerDesignDay
7,13.488499999999999
2,1, 7,21, 0,23,30.00,45.00,SummerDesignDay
7,13.206749999999998
2,1, 7,21, 0,23,45.00,60.00,SummerDesignDay
7,12.924999999999999
2,1, 7,21, 0,23, 0.00,60.00,SummerDesignDay
4438,0.0
2,1, 7,21, 0,24, 0.00,15.00,SummerDesignDay
7,12.64325
2,1, 7,21, 0,24,15.00,30.00,SummerDesignDay
7,12.3615
2,1, 7,21, 0,24,30.00,45.00,SummerDesignDay
7,12.079749999999999
2,1, 7,21, 0,24,45.00,60.00,SummerDesignDay
7,11.798
2,1, 7,21, 0,24, 0.00,60.00,SummerDesignDay
4438,1276.8669531649399
1,SANTA-ROSA(AWOS) ANN HTG 99.6% CONDNS DB,  38.51,-122.81,  -8.00,  45.00
2,1, 1,21, 0, 1, 0.00,15.00,WinterDesignDay
7,-1.6
2,1, 1,21, 0, 1,15.00,30.00,WinterDesignDay
7,-1.6
2,1, 1,21, 0, 1,30.00,45.00,WinterDesignDay
7,-1.6
2,1, 1,21, 0, 1,45.00,60.00,WinterDesignDay
7,-1.6
2,1, 1,21, 0, 1, 0.00,60.00,WinterDesignDay
4438,70638.58147767445
2,1, 1,21, 0, 2, 0.00,15.00,WinterDesignDay
7,-1.6
2,1, 1,21, 0, 2,15.00,30.00,WinterDesignDay
7,-1.6
2,1, 1,21, 0, 2,30.00,45.00,WinterDesignDay
7,-1.6
2,1, 1,21, 0, 2,45.00,60.00,WinterDesignDay
7,-1.6
2,1, 1,21, 0, 2, 0.00,60.00,WinterDesignDay
4438,72655.6220841327
2,1, 1,21, 0, 3, 0.00,15.00,WinterDesignDay
7,-1.6
2,1, 1,21, 0, 3,15.00,30.00,WinterDesignDay
7,-1.6
2,1, 1,21, 0, 3,30.00,45.00,WinterDesignDay
7,-1.6
2,1, 1,21, 0, 3,45.00,60.00,WinterDesignDay
7,-1.6
2,1, 1,21, 0, 3, 0.00,60.00,WinterDesignDay
4438,75982.46598798358
2,1, 1,21, 0, 4, 0.00,15.00,WinterDesignDay
7,-1.6
2,1, 1,21, 0, 4,15.00,30.00,WinterDesignDay
7,-1.6
2,1, 1,21, 0, 4,30.00,45.00,WinterDesignDay
7,-1.6
2,1, 1,21, 0, 4,45.00,60.00,WinterDesignDay
7,-1.6
2,1, 1,21, 0, 4, 0.00,60.00,WinterDesignDay
4438,80587.34645488298
2,1, 1,21, 0, 5, 0.00,15.00,WinterDesignDay
7,-1.6
2,1, 1,21, 0, 5,15.00,30.00,WinterDesignDay
7,-1.6
2,1, 1,21, 0, 5,30.00,45.00,WinterDesignDay
7,-1.6
2,1, 1,21, 0, 5,45.00,60.00,WinterDesignDay
7,-1.6
2,1, 1,21, 0, 5, 0.00,60.00,WinterDesignDay
4438,83772.52801720092
2,1, 1,21, 0, 6, 0.00,15.00,WinterDesignDay
7,-1.6
2,1, 1,21, 0, 6,15.00,30.00,WinterDesignDay
7,-1.6
2,1, 1,21, 0, 6,30.00,45.00,WinterDesignDay
7,-1.6
2,1, 1,21, 0, 6,45.00,60.00,WinterDesignDay
7,-1.6
2,1, 1,21, 0, 6, 0.00,60.00,WinterDesignDay
4438,128009.17394315385
2,1, 1,21, 0, 7, 0.00,15.00,WinterDesignDay
7,-1.6
2,1, 1,21, 0, 7,15.00,30.00,WinterDesignDay
7,-1.6
2,1, 1,21, 0, 7,30.00,45.00,WinterDesignDay
7,-1.6
2,1, 1,21, 0, 7,45.00,60.00,WinterDesignDay
7,-1.6
2,1, 1,21, 0, 7, 0.00,60.00,WinterDesignDay
4438,190043.37413426705
2,1, 1,21, 0, 8, 0.00,15.00,WinterDesignDay
7,-1.6
2,1, 1,21, 0, 8,15.00,30.00,WinterDesignDay
7,-1.6
2,1, 1,21, 0, 8,30.00,45.00,WinterDesignDay
7,-1.6
2,1, 1,21, 0, 8,45.00,60.00,WinterDesignDay
7,-1.6
2,1, 1,21, 0, 8, 0.00,60.00,WinterDesignDay
4438,154431.9668043462
2,1, 1,21, 0, 9, 0.00,15.00,WinterDesignDay
7,-1.6
2,1, 1,21, 0, 9,15.00,30.00,WinterDesignDay
7,-1.6
2,1, 1,21, 0, 9,30.00,45.00,WinterDesignDay
7,-1.6
2,1, 1,21, 0, 9,45.00,60.00,WinterDesignDay
7,-1.6
2,1, 1,21, 0, 9, 0.00,60.00,WinterDesignDay
4438,142151.61914997217
2,1, 1,21, 0,10, 0.00,15.00,WinterDesignDay
7,-1.6
2,1, 1,21, 0,10,15.00,30.00,WinterDesignDay
7,-1.6
2,1, 1,21, 0,10,30.00,45.00,WinterDesignDay
7,-1.6
2,1, 1,21, 0,10,45.00,60.00,WinterDesignDay
7,-1.6
2,1, 1,21, 0,10, 0.00,60.00,WinterDesignDay
4438,136228.71424355679
2,1, 1,21, 0,11, 0.00,15.00,WinterDesignDay
7,-1.6
2,1, 1,21, 0,11,15.00,30.00,WinterDesignDay
7,-1.6
2,1, 1,21, 0,11,30.00,45.00,WinterDesignDay
7,-1.6
2,1, 1,21, 0,11,45.00,60.00,WinterDesignDay
7,-1.6
2,1, 1,21, 0,11, 0.00,60.00,WinterDesignDay
4438,132660.4154935275
2,1, 1,21, 0,12, 0.00,15.00,WinterDesignDay
7,-1.6
2,1, 1,21, 0,12,15.00,30.00,WinterDesignDay
7,-1.6
2,1, 1,21, 0,12,30.00,45.00,WinterDesignDay
7,-1.6
2,1, 1,21, 0,12,45.00,60.00,WinterDesignDay
7,-1.6
2,1, 1,21, 0,12, 0.00,60.00,WinterDesignDay
4438,130390.80689054579
2,1, 1,21, 0,13, 0.00,15.00,WinterDesignDay
7,-1.6
2,1, 1,21, 0,13,15.00,30.00,WinterDesignDay
7,-1.6
2,1, 1,21, 0,13,30.00,45.00,WinterDesignDay
7,-1.6
2,1, 1,21, 0,13,45.00,60.00,WinterDesignDay
7,-1.6
2,1, 1,21, 0,13, 0.00,60.00,WinterDesignDay
4438,128768.88754497274
2,1, 1,21, 0,14, 0.00,15.00,WinterDesignDay
7,-1.6
2,1, 1,21, 0,14,15.00,30.00,WinterDesignDay
7,-1.6
2,1, 1,21, 0,14,30.00,45.00,WinterDesignDay
7,-1.6
2,1, 1,21, 0,14,45.00,60.00,WinterDesignDay
7,-1.6
2,1, 1,21, 0,14, 0.00,60.00,WinterDesignDay
4438,127612.96353154577
2,1, 1,21, 0,15, 0.00,15.00,WinterDesignDay
7,-1.6
2,1, 1,21, 0,15,15.00,30.00,WinterDesignDay
7,-1.6
2,1, 1,21, 0,15,30.00,45.00,WinterDesignDay
7,-1.6
2,1, 1,21, 0,15,45.00,60.00,WinterDesignDay
7,-1.6
2,1, 1,21, 0,15, 0.00,60.00,WinterDesignDay
4438,126762.22623022637
2,1, 1,21, 0,16, 0.00,15.00,WinterDesignDay
7,-1.6
2,1, 1,21, 0,16,15.00,30.00,WinterDesignDay
7,-1.6
2,1, 1,21, 0,16,30.00,45.00,WinterDesignDay
7,-1.6
2,1, 1,21, 0,16,45.00,60.00,WinterDesignDay
7,-1.6
2,1, 1,21, 0,16, 0.00,60.00,WinterDesignDay
4438,126119.99792351443
2,1, 1,21, 0,17, 0.00,15.00,WinterDesignDay
7,-1.6
2,1, 1,21, 0,17,15.00,30.00,WinterDesignDay
7,-1.6
2,1, 1,21, 0,17,30.00,45.00,WinterDesignDay
7,-1.6
2,1, 1,21, 0,17,45.00,60.00,WinterDesignDay
7,-1.6
2,1, 1,21, 0,17, 0.00,60.00,WinterDesignDay
4438,125654.28026470785
2,1, 1,21, 0,18, 0.00,15.00,WinterDesignDay
7,-1.6
2,1, 1,21, 0,18,15.00,30.00,WinterDesignDay
7,-1.6
2,1, 1,21, 0,18,30.00,45.00,WinterDesignDay
7,-1.6
2,1, 1,21, 0,18,45.00,60.00,WinterDesignDay
7,-1.6
2,1, 1,21, 0,18, 0.00,60.00,WinterDesignDay
4438,125297.8918741155
2,1, 1,21, 0,19, 0.00,15.00,WinterDesignDay
7,-1.6
2,1, 1,21, 0,19,15.00,30.00,WinterDesignDay
7,-1.6
2,1, 1,21, 0,19,30.00,45.00,WinterDesignDay
7,-1.6
2,1, 1,21, 0,19,45.00,60.00,WinterDesignDay
7,-1.6
2,1, 1,21, 0,19, 0.00,60.00,WinterDesignDay
4438,125031.52094585425
2,1, 1,21, 0,20, 0.00,15.00,WinterDesignDay
7,-1.6
2,1, 1,21, 0,20,15.00,30.00,WinterDesignDay
7,-1.6
2,1, 1,21, 0,20,30.00,45.00,WinterDesignDay
7,-1.6
2,1, 1,21, 0,20,45.00,60.00,WinterDesignDay
7,-1.6
2,1, 1,21, 0,20, 0.00,60.00,WinterDesignDay
4438,124831.99745879977
2,1, 1,21, 0,21, 0.00,15.00,WinterDesignDay
7,-1.6
2,1, 1,21, 0,21,15.00,30.00,WinterDesignDay
7,-1.6
2,1, 1,21, 0,21,30.00,45.00,WinterDesignDay
7,-1.6
2,1, 1,21, 0,21,45.00,60.00,WinterDesignDay
7,-1.6
2,1, 1,21, 0,21, 0.00,60.00,WinterDesignDay
4438,124661.65705898765
2,1, 1,21, 0,22, 0.00,15.00,WinterDesignDay
7,-1.6
2,1, 1,21, 0,22,15.00,30.00,WinterDesignDay
7,-1.6
2,1, 1,21, 0,22,30.00,45.00,WinterDesignDay
7,-1.6
2,1, 1,21, 0,22,45.00,60.00,WinterDesignDay
7,-1.6
2,1, 1,21, 0,22, 0.00,60.00,WinterDesignDay
4438,74720.5337270354
2,1, 1,21, 0,23, 0.00,15.00,WinterDesignDay
7,-1.6
2,1, 1,21, 0,23,15.00,30.00,WinterDesignDay
7,-1.6
2,1, 1,21, 0,23,30.00,45.00,WinterDesignDay
7,-1.6
2,1, 1,21, 0,23,45.00,60.00,WinterDesignDay
7,-1.6
2,1, 1,21, 0,23, 0.00,60.00,WinterDesignDay
4438,84123.75950619046
2,1, 1,21, 0,24, 0.00,15.00,WinterDesignDay
7,-1.6
2,1, 1,21, 0,24,15.00,30.00,WinterDesignDay
7,-1.6
2,1, 1,21, 0,24,30.00,45.00,WinterDesignDay
7,-1.6
2,1, 1,21, 0,24,45.00,60.00,WinterDesignDay
7,-1.6
2,1, 1,21, 0,24, 0.00,60.00,WinterDesignDay
4438,91697.5587021113
1,SANTA-ROSA(AWOS) AUG CLG 0.4% CONDNS DB=>MCWB,  38.51,-122.81,  -8.00,  45.00
2,1, 8,21, 0, 1, 0.00,15.00,SummerDesignDay
7,22.254500000000005
2,1, 8,21, 0, 1,15.00,30.00,SummerDesignDay
7,21.995000000000006
2,1, 8,21, 0, 1,30.00,45.00,SummerDesignDay
7,21.735500000000003
2,1, 8,21, 0, 1,45.00,60.00,SummerDesignDay
7,21.476000000000004
2,1, 8,21, 0, 1, 0.00,60.00,SummerDesignDay
4438,0.0
2,1, 8,21, 0, 2, 0.00,15.00,SummerDesignDay
7,21.303000000000006
2,1, 8,21, 0, 2,15.00,30.00,SummerDesignDay
7,21.130000000000004
2,1, 8,21, 0, 2,30.00,45.00,SummerDesignDay
7,20.957
2,1, 8,21, 0, 2,45.00,60.00,SummerDesignDay
7,20.784
2,1, 8,21, 0, 2, 0.00,60.00,SummerDesignDay
4438,0.0
2,1, 8,21, 0, 3, 0.00,15.00,SummerDesignDay
7,20.65425
2,1, 8,21, 0, 3,15.00,30.00,SummerDesignDay
7,20.5245
2,1, 8,21, 0, 3,30.00,45.00,SummerDesignDay
7,20.394750000000007
2,1, 8,21, 0, 3,45.00,60.00,SummerDesignDay
7,20.265000000000005
2,1, 8,21, 0, 3, 0.00,60.00,SummerDesignDay
4438,0.0
2,1, 8,21, 0, 4, 0.00,15.00,SummerDesignDay
7,20.135250000000004
2,1, 8,21, 0, 4,15.00,30.00,SummerDesignDay
7,20.0055
2,1, 8,21, 0, 4,30.00,45.00,SummerDesignDay
7,19.875750000000005
2,1, 8,21, 0, 4,45.00,60.00,SummerDesignDay
7,19.746000000000003
2,1, 8,21, 0, 4, 0.00,60.00,SummerDesignDay
4438,0.0
2,1, 8,21, 0, 5, 0.00,15.00,SummerDesignDay
7,19.6595
2,1, 8,21, 0, 5,15.00,30.00,SummerDesignDay
7,19.573000000000005
2,1, 8,21, 0, 5,30.00,45.00,SummerDesignDay
7,19.486500000000004
2,1, 8,21, 0, 5,45.00,60.00,SummerDesignDay
7,19.400000000000003
2,1, 8,21, 0, 5, 0.00,60.00,SummerDesignDay
4438,0.0
2,1, 8,21, 0, 6, 0.00,15.00,SummerDesignDay
7,19.486500000000004
2,1, 8,21, 0, 6,15.00,30.00,SummerDesignDay
7,19.573000000000005
2,1, 8,21, 0, 6,30.00,45.00,SummerDesignDay
7,19.6595
2,1, 8,21, 0, 6,45.00,60.00,SummerDesignDay
7,19.746000000000003
2,1, 8,21, 0, 6, 0.00,60.00,SummerDesignDay
4438,0.0
2,1, 8,21, 0, 7, 0.00,15.00,SummerDesignDay
7,20.048750000000003
2,1, 8,21, 0, 7,15.00,30.00,SummerDesignDay
7,20.3515
2,1, 8,21, 0, 7,30.00,45.00,SummerDesignDay
7,20.65425
2,1, 8,21, 0, 7,45.00,60.00,SummerDesignDay
7,20.957
2,1, 8,21, 0, 7, 0.00,60.00,SummerDesignDay
4438,0.0
2,1, 8,21, 0, 8, 0.00,15.00,SummerDesignDay
7,21.69225
2,1, 8,21, 0, 8,15.00,30.00,SummerDesignDay
7,22.427500000000003
2,1, 8,21, 0, 8,30.00,45.00,SummerDesignDay
7,23.162750000000004
2,1, 8,21, 0, 8,45.00,60.00,SummerDesignDay
7,23.898000000000005
2,1, 8,21, 0, 8, 0.00,60.00,SummerDesignDay
4438,0.0
2,1, 8,21, 0, 9, 0.00,15.00,SummerDesignDay
7,24.719750000000006
2,1, 8,21, 0, 9,15.00,30.00,SummerDesignDay
7,25.541500000000004
2,1, 8,21, 0, 9,30.00,45.00,SummerDesignDay
7,26.36325
2,1, 8,21, 0, 9,45.00,60.00,SummerDesignDay
7,27.185000000000004
2,1, 8,21, 0, 9, 0.00,60.00,SummerDesignDay
4438,0.0
2,1, 8,21, 0,10, 0.00,15.00,SummerDesignDay
7,27.920250000000004
2,1, 8,21, 0,10,15.00,30.00,SummerDesignDay
7,28.655500000000005
2,1, 8,21, 0,10,30.00,45.00,SummerDesignDay
7,29.39075
2,1, 8,21, 0,10,45.00,60.00,SummerDesignDay
7,30.126
2,1, 8,21, 0,10, 0.00,60.00,SummerDesignDay
4438,0.0
2,1, 8,21, 0,11, 0.00,15.00,SummerDesignDay
7,30.77475
2,1, 8,21, 0,11,15.00,30.00,SummerDesignDay
7,31.423500000000005
2,1, 8,21, 0,11,30.00,45.00,SummerDesignDay
7,32.072250000000007
2,1, 8,21, 0,11,45.00,60.00,SummerDesignDay
7,32.721000000000007
2,1, 8,21, 0,11, 0.00,60.00,SummerDesignDay
4438,0.0
2,1, 8,21, 0,12, 0.00,15.00,SummerDesignDay
7,33.1535
2,1, 8,21, 0,12,15.00,30.00,SummerDesignDay
7,33.586000000000009
2,1, 8,21, 0,12,30.00,45.00,SummerDesignDay
7,34.0185
2,1, 8,21, 0,12,45.00,60.00,SummerDesignDay
7,34.451
2,1, 8,21, 0,12, 0.00,60.00,SummerDesignDay
4438,0.0
2,1, 8,21, 0,13, 0.00,15.00,SummerDesignDay
7,34.797000000000007
2,1, 8,21, 0,13,15.00,30.00,SummerDesignDay
7,35.143
2,1, 8,21, 0,13,30.00,45.00,SummerDesignDay
7,35.489000000000007
2,1, 8,21, 0,13,45.00,60.00,SummerDesignDay
7,35.835
2,1, 8,21, 0,13, 0.00,60.00,SummerDesignDay
4438,0.0
2,1, 8,21, 0,14, 0.00,15.00,SummerDesignDay
7,36.05125
2,1, 8,21, 0,14,15.00,30.00,SummerDesignDay
7,36.267500000000008
2,1, 8,21, 0,14,30.00,45.00,SummerDesignDay
7,36.48375
2,1, 8,21, 0,14,45.00,60.00,SummerDesignDay
7,36.7
2,1, 8,21, 0,14, 0.00,60.00,SummerDesignDay
4438,0.0
2,1, 8,21, 0,15, 0.00,15.00,SummerDesignDay
7,36.7
2,1, 8,21, 0,15,15.00,30.00,SummerDesignDay
7,36.7
2,1, 8,21, 0,15,30.00,45.00,SummerDesignDay
7,36.7
2,1, 8,21, 0,15,45.00,60.00,SummerDesignDay
7,36.7
2,1, 8,21, 0,15, 0.00,60.00,SummerDesignDay
4438,0.0
2,1, 8,21, 0,16, 0.00,15.00,SummerDesignDay
7,36.4405
2,1, 8,21, 0,16,15.00,30.00,SummerDesignDay
7,36.181000000000008
2,1, 8,21, 0,16,30.00,45.00,SummerDesignDay
7,35.9215
2,1, 8,21, 0,16,45.00,60.00,SummerDesignDay
7,35.662000000000009
2,1, 8,21, 0,16, 0.00,60.00,SummerDesignDay
4438,0.0
2,1, 8,21, 0,17, 0.00,15.00,SummerDesignDay
7,35.316
2,1, 8,21, 0,17,15.00,30.00,SummerDesignDay
7,34.970000000000009
2,1, 8,21, 0,17,30.00,45.00,SummerDesignDay
7,34.624
2,1, 8,21, 0,17,45.00,60.00,SummerDesignDay
7,34.278000000000009
2,1, 8,21, 0,17, 0.00,60.00,SummerDesignDay
4438,0.0
2,1, 8,21, 0,18, 0.00,15.00,SummerDesignDay
7,33.8455
2,1, 8,21, 0,18,15.00,30.00,SummerDesignDay
7,33.413000000000007
2,1, 8,21, 0,18,30.00,45.00,SummerDesignDay
7,32.980500000000009
2,1, 8,21, 0,18,45.00,60.00,SummerDesignDay
7,32.548
2,1, 8,21, 0,18, 0.00,60.00,SummerDesignDay
4438,0.0
2,1, 8,21, 0,19, 0.00,15.00,SummerDesignDay
7,31.899250000000003
2,1, 8,21, 0,19,15.00,30.00,SummerDesignDay
7,31.250500000000004
2,1, 8,21, 0,19,30.00,45.00,SummerDesignDay
7,30.601750000000004
2,1, 8,21, 0,19,45.00,60.00,SummerDesignDay
7,29.953000000000004
2,1, 8,21, 0,19, 0.00,60.00,SummerDesignDay
4438,0.0
2,1, 8,21, 0,20, 0.00,15.00,SummerDesignDay
7,29.477250000000006
2,1, 8,21, 0,20,15.00,30.00,SummerDesignDay
7,29.001500000000005
2,1, 8,21, 0,20,30.00,45.00,SummerDesignDay
7,28.525750000000003
2,1, 8,21, 0,20,45.00,60.00,SummerDesignDay
7,28.050000000000006
2,1, 8,21, 0,20, 0.00,60.00,SummerDesignDay
4438,0.0
2,1, 8,21, 0,21, 0.00,15.00,SummerDesignDay
7,27.660750000000005
2,1, 8,21, 0,21,15.00,30.00,SummerDesignDay
7,27.271500000000004
2,1, 8,21, 0,21,30.00,45.00,SummerDesignDay
7,26.882250000000004
2,1, 8,21, 0,21,45.00,60.00,SummerDesignDay
7,26.493000000000003
2,1, 8,21, 0,21, 0.00,60.00,SummerDesignDay
4438,0.0
2,1, 8,21, 0,22, 0.00,15.00,SummerDesignDay
7,26.10375
2,1, 8,21, 0,22,15.00,30.00,SummerDesignDay
7,25.7145
2,1, 8,21, 0,22,30.00,45.00,SummerDesignDay
7,25.325250000000005
2,1, 8,21, 0,22,45.00,60.00,SummerDesignDay
7,24.936
2,1, 8,21, 0,22, 0.00,60.00,SummerDesignDay
4438,0.0
2,1, 8,21, 0,23, 0.00,15.00,SummerDesignDay
7,24.633250000000005
2,1, 8,21, 0,23,15.00,30.00,SummerDesignDay
7,24.3305
2,1, 8,21, 0,23,30.00,45.00,SummerDesignDay
7,24.02775
2,1, 8,21, 0,23,45.00,60.00,SummerDesignDay
7,23.725
2,1, 8,21, 0,23, 0.00,60.00,SummerDesignDay
4438,0.0
2,1, 8,21, 0,24, 0.00,15.00,SummerDesignDay
7,23.422250000000007
2,1, 8,21, 0,24,15.00,30.00,SummerDesignDay
7,23.119500000000003
2,1, 8,21, 0,24,30.00,45.00,SummerDesignDay
7,22.816750000000004
2,1, 8,21, 0,24,45.00,60.00,SummerDesignDay
7,22.514000000000004
2,1, 8,21, 0,24, 0.00,60.00,SummerDesignDay
4438,0.0
1,SANTA-ROSA(AWOS) JUL CLG 0.4% CONDNS DB=>MCWB,  38.51,-122.81,  -8.00,  45.00
2,1, 7,21, 0, 1, 0.00,15.00,SummerDesignDay
7,24.356499999999998
2,1, 7,21, 0, 1,15.00,30.00,SummerDesignDay
7,24.114999999999996
2,1, 7,21, 0, 1,30.00,45.00,SummerDesignDay
7,23.873499999999998
2,1, 7,21, 0, 1,45.00,60.00,SummerDesignDay
7,23.631999999999999
2,1, 7,21, 0, 1, 0.00,60.00,SummerDesignDay
4438,0.0
2,1, 7,21, 0, 2, 0.00,15.00,SummerDesignDay
7,23.470999999999998
2,1, 7,21, 0, 2,15.00,30.00,SummerDesignDay
7,23.309999999999996
2,1, 7,21, 0, 2,30.00,45.00,SummerDesignDay
7,23.148999999999995
2,1, 7,21, 0, 2,45.00,60.00,SummerDesignDay
7,22.987999999999997
2,1, 7,21, 0, 2, 0.00,60.00,SummerDesignDay
4438,0.0
2,1, 7,21, 0, 3, 0.00,15.00,SummerDesignDay
7,22.86725
2,1, 7,21, 0, 3,15.00,30.00,SummerDesignDay
7,22.746499999999999
2,1, 7,21, 0, 3,30.00,45.00,SummerDesignDay
7,22.625749999999998
2,1, 7,21, 0, 3,45.00,60.00,SummerDesignDay
7,22.504999999999997
2,1, 7,21, 0, 3, 0.00,60.00,SummerDesignDay
4438,0.0
2,1, 7,21, 0, 4, 0.00,15.00,SummerDesignDay
7,22.384249999999999
2,1, 7,21, 0, 4,15.00,30.00,SummerDesignDay
7,22.263499999999998
2,1, 7,21, 0, 4,30.00,45.00,SummerDesignDay
7,22.14275
2,1, 7,21, 0, 4,45.00,60.00,SummerDesignDay
7,22.022
2,1, 7,21, 0, 4, 0.00,60.00,SummerDesignDay
4438,0.0
2,1, 7,21, 0, 5, 0.00,15.00,SummerDesignDay
7,21.941499999999999
2,1, 7,21, 0, 5,15.00,30.00,SummerDesignDay
7,21.860999999999998
2,1, 7,21, 0, 5,30.00,45.00,SummerDesignDay
7,21.780499999999998
2,1, 7,21, 0, 5,45.00,60.00,SummerDesignDay
7,21.699999999999997
2,1, 7,21, 0, 5, 0.00,60.00,SummerDesignDay
4438,0.0
2,1, 7,21, 0, 6, 0.00,15.00,SummerDesignDay
7,21.780499999999998