Program Version,EnergyPlus, Version 9.0.1-bb7ca4f0da, YMD=2019.12.17 17:34
1,5,Environment Title[],Latitude[deg],Longitude[deg],Time Zone[],Elevation[m]
2,8,Day of Simulation[],Month[],Day of Month[],DST Indicator[1=yes 0=no],Hour[],StartMinute[],EndMinute[],DayType
3,5,Cumulative Day of Simulation[],Month[],Day of Month[],DST Indicator[1=yes 0=no],DayType  ! When Daily Meters Requested
4,2,Cumulative Days of Simulation[],Month[]  ! When Monthly Meters Requested
5,1,Cumulative Days of Simulation[] ! When Run Period Meters Requested
6,1,Calendar Year of Simulation[] ! When Annual Meters Requested
4473,1,Pumps:Electricity [J] !Hourly
11,1,Electricity:Facility [J] !Hourly
47,1,InteriorLights:Electricity [J] !Hourly
993,1,InteriorEquipment:Electricity [J] !Hourly
4114,1,Fans:Electricity [J] !Hourly
4210,1,Heating:Electricity [J] !Hourly
4348,1,Cooling:Electricity [J] !Hourly
1533,1,InteriorEquipment:Gas [J] !Hourly
2228,1,WaterSystems:Electricity [J] !Hourly
1497,1,Gas:Facility [J] !Hourly
1017,1,Receptacle:InteriorEquipment:Electricity [J] !Hourly
4236,1,Heating:Gas [J] !Hourly
2366,1,WaterSystems:Gas [J] !Hourly
1557,1,Receptacle:InteriorEquipment:Gas [J] !Hourly
71,1,ComplianceLtg:InteriorLights:Electricity [J] !Hourly
346,1,NonComplianceLtg:InteriorLights:Electricity [J] !Hourly
4126,1,General:Fans:Electricity [J] !Hourly
4162,1,ProcessMotors:Fans:Electricity [J] !Hourly
End of Data Dictionary
1,FULLERTON_722976_CZ2010,  33.87,-117.98,  -8.00,  29.00
2,1, 1, 1, 0, 1, 0.00,60.00,Holiday
11,66338212.849276367
47,24156278.99999996
71,4835078.999999999
346,19321199.999999968
993,18722069.99999997
1017,18722069.99999997
1497,1039512.5476777211
1533,0.0
1557,0.0
2228,802157.403866025
2366,1039512.5476777211
4114,22657706.445410395
4126,8458341.339612136
4162,14199365.105798258
4210,0.0
4236,0.0
4348,0.0
4473,0.0
2,1, 1, 1, 0, 2, 0.00,60.00,Holiday
11,67140463.20029009
47,24156278.99999996
71,4835078.999999999
346,19321199.999999968
993,18722069.99999997
1017,18722069.99999997
1497,1039458.6292759162
1533,0.0
1557,0.0
2228,1604407.7548797415
2366,1039458.6292759162
4114,22657706.445410395
4126,8458341.339612136
4162,14199365.105798258
4210,0.0
4236,0.0
4348,0.0
4473,0.0
2,1, 1, 1, 0, 3, 0.00,60.00,Holiday
11,67140201.09082935
47,24156278.99999996
71,4835078.999999999
346,19321199.999999968
993,18722069.99999997
1017,18722069.99999997
1497,1063540.4391587629
1533,0.0
1557,0.0
2228,1604145.645419015
2366,1063540.4391587629
4114,22657706.445410395
4126,8458341.339612136
4162,14199365.105798258
4210,0.0
4236,0.0
4348,0.0
4473,0.0
2,1, 1, 1, 0, 4, 0.00,60.00,Holiday
11,66341660.62129402
47,24156278.99999996
71,4835078.999999999
346,19321199.999999968
993,18722069.99999997
1017,18722069.99999997
1497,1486785.2256503246
1533,0.0
1557,0.0
2228,795983.9674749089
2366,1269275.949187554
4114,22667327.653819164
4126,8458341.339612136
4162,14199365.105798258
4210,0.0
4236,217509.27646277057
4348,0.0
4473,0.0
2,1, 1, 1, 0, 5, 0.00,60.00,Holiday
11,66563839.94654548
47,24156278.99999996
71,4835078.999999999
346,19321199.999999968
993,18722069.99999997
1017,18722069.99999997
1497,6273277.926590705
1533,0.0
1557,0.0
2228,796043.9380438516
2366,1034259.1287817657
4114,22889447.00850167
4126,8458341.339612136
4162,14199365.105798258
4210,0.0
4236,5239018.79780894
4348,0.0
4473,0.0
2,1, 1, 1, 0, 6, 0.00,60.00,Holiday
11,152011671.82756538
47,52754678.99999992
71,4835078.999999999
346,47919599.99999992
993,47320469.999999929
1017,47320469.999999929
1497,9215774.296919985
1533,0.0
1557,0.0
2228,1592130.222324199
2366,1040710.8320977099
4114,25051479.40786525
4126,10490501.918585619
4162,14199365.105798258
4210,25292913.197375977
4236,8175063.464822276
4348,0.0
4473,0.0
2,1, 1, 1, 0, 7, 0.00,60.00,Holiday
11,209574600.4663679
47,74203478.99999988
71,4835078.999999999
346,69368399.9999999
993,68769269.9999999
1017,68769269.9999999
1497,410068757.5182325
1533,28597212.921243654
1557,28597212.921243654
2228,1604243.765379989
2366,1039642.6913895091
4114,41517738.54334815
4126,10490501.91858562
4162,14199365.105798258
4210,23479869.15763998
4236,380431901.9055994
4348,0.0
4473,0.0
2,1, 1, 1, 0, 8, 0.00,60.00,Holiday
11,200563816.20350117
47,74180188.76894257
71,4811788.768942688
346,69368399.9999999
993,68769269.9999999
1017,68769269.9999999
1497,257231844.36510394
1533,28597212.921243654
1557,28597212.921243654
2228,1641967.645071018
2366,1317326.807184632
4114,34744929.01362073
4126,10490501.918585619
4162,14199365.105798258
4210,21227460.775866994
4236,227317304.6366756
4348,0.0
4473,0.0
2,1, 1, 1, 0, 9, 0.00,60.00,Holiday
11,212769687.8393182
47,77608925.50052455
71,8240525.500524677
346,69368399.9999999
993,72641339.99999988
1017,72641339.99999988
1497,502320708.4483639
1533,0.0
1557,0.0
2228,2502067.592145685
2366,1329751.8759155898
4114,43999069.923083048
4126,23073574.34628538
4162,14199365.105798258
4210,15357129.903360725
4236,500990956.57244828
4348,0.0
4473,661154.9202043043
2,1, 1, 1, 0,10, 0.00,60.00,Holiday
11,198211742.99701665
47,77332024.61351493
71,7963624.613515057
346,69368399.9999999
993,72641339.99999988
1017,72641339.99999988
1497,337854387.08435538
1533,0.0
1557,0.0
2228,2542750.5218773118
2366,1342378.4787880295
4114,33854692.39418709
4126,16522512.627657272
4162,14199365.105798258
4210,11579467.951809889
4236,336512008.6055673
4348,0.0
4473,261467.5156275379
2,1, 1, 1, 0,11, 0.00,60.00,Holiday
11,198738102.8419224
47,76656914.19893429
71,28737314.19893434
346,47919599.99999992
993,74424959.99999996
1017,74424959.99999996
1497,201190474.0041589
1533,0.0
1557,0.0
2228,4891857.080336013
2366,2023432.6023197873
4114,32824153.565561557
4126,16519577.605455207
4162,14199365.105798258
4210,9733598.646876043
4236,199167041.40183915
4348,0.0
4473,206619.3502146281
2,1, 1, 1, 0,12, 0.00,60.00,Holiday
11,194821184.90297286
47,75797434.10748202
71,27877834.107482058
346,47919599.99999992
993,74424959.99999996
1017,74424959.99999996
1497,100828840.97751972
1533,11438885.168497468
1557,11438885.168497468
2228,5830472.531278875
2366,2053312.0566685016
4114,30920626.885287368
4126,16519577.605455209
4162,14199365.105798258
4210,7648614.498948364
4236,87336643.75235375
4348,0.0
4473,199076.87997631456
2,1, 1, 1, 0,13, 0.00,60.00,Holiday
11,222475099.48873294
47,85714508.37005495
71,37794908.37005497
346,47919599.99999992
993,89913239.99999997
1017,89913239.99999997
1497,29841233.096190789
1533,11438885.168497468
1557,11438885.168497468
2228,7222658.11178666
2366,2409426.218629738
4114,30718942.711253466
4126,16519577.605455209
4162,14199365.105798258
4210,6379117.143406932
4236,15992921.709063584
4348,2328060.3647529475
4473,198572.78747811137
2,1, 1, 1, 0,14, 0.00,60.00,Holiday
11,224535303.71942265
47,86104164.59200159
71,38184564.59200161
346,47919599.99999992
993,89913239.99999997
1017,89913239.99999997
1497,13336476.199205434
1533,0.0
1557,0.0
2228,6190466.443097847
2366,2287017.3737881707
4114,30726099.97878918
4126,16519577.605455207
4162,14199365.105798258
4210,5592625.71419012
4236,11049458.825417266
4348,5809988.641391652
4473,198718.34995236895
2,1, 1, 1, 0,15, 0.00,60.00,Holiday
11,228998897.3116826
47,86846403.79477188
71,38926803.79477192
346,47919599.99999992
993,89913239.99999997
1017,89913239.99999997
1497,12369886.86573491
1533,0.0
1557,0.0
2228,7081611.563912843
2366,2222539.0923709755
4114,30799811.06592877
4126,16519577.605455207
4162,14199365.105798258
4210,4892625.032380126
4236,10147347.773363935
4348,9266462.489083045
4473,198743.36560604283
2,1, 1, 1, 0,16, 0.00,60.00,Holiday
11,227039046.2457122
47,86208929.71018201
71,38289329.71018203
346,47919599.99999992
993,89913239.99999997
1017,89913239.99999997
1497,11684251.545710853
1533,0.0
1557,0.0
2228,6128778.099340179
2366,2086943.16448527
4114,30874699.42916248
4126,16526505.151167877
4162,14199365.105798258
4210,5102863.053902381
4236,9597308.381225583
4348,8611776.266736633
4473,198759.68638860656
2,1, 1, 1, 0,17, 0.00,60.00,Holiday
11,229477422.50090958
47,89242826.3390228
71,41323226.339022818
346,47919599.99999992
993,89913239.99999997
1017,89913239.99999997
1497,40333494.23141879
1533,28597212.921243654
1557,28597212.921243654
2228,7293213.997583228
2366,2411404.099729804
4114,30795571.3666348
4126,16542567.178059435
4162,14199365.105798258
4210,5526793.447959496
4236,9324877.21044533
4348,6507009.599582944
4473,198767.75012639786
2,1, 1, 1, 0,18, 0.00,60.00,Holiday
11,200481562.63511286
47,78647111.99999994
71,30727511.99999999
346,47919599.99999992
993,74424959.99999996
1017,74424959.99999996
1497,62271025.40365549
1533,28597212.921243654
1557,28597212.921243654
2228,6069961.386481142
2366,2076085.55863341
4114,30719174.46542743
4126,16519577.605455207
4162,14199365.105798258
4210,6026536.565473651
4236,31597726.923778427
4348,4395549.874806526
4473,198268.3429242475
2,1, 1, 1, 0,19, 0.00,60.00,Holiday
11,243055583.83758024
47,106749035.99999982
71,15931835.999999995
346,90817199.99999984
993,101834279.99999984
1017,101834279.99999984
1497,110270199.03057376
1533,28597212.921243654
1557,28597212.921243654
2228,4652315.01431382
2366,1982825.6095913568
4114,28686782.132279979
4126,14487417.026481722
4162,14199365.105798258
4210,14267.760490912706
4236,79690160.49973876
4348,920082.9733250769
4473,198819.95717069237
2,1, 1, 1, 0,20, 0.00,60.00,Holiday
11,270461779.94076946
47,124250678.9999998
71,4835078.999999999
346,119415599.9999998
993,118816469.99999982
1017,118816469.99999982
1497,1716777.3073576715
1533,0.0
1557,0.0
2228,4736924.495359293
2366,1716777.3073576715
4114,22657706.445410395
4126,8458341.339612136
4162,14199365.105798258
4210,0.0
4236,0.0
4348,0.0
4473,0.0
2,1, 1, 1, 0,21, 0.00,60.00,Holiday
11,299479233.9346734
47,138549878.9999998
71,4835078.999999999
346,133714799.99999979
993,133115669.99999979
1017,133115669.99999979
1497,1666516.3113774057
1533,0.0
1557,0.0
2228,4492462.766283419
2366,1666516.3113774057
4114,22769274.783784558
4126,8458341.339612136
4162,14199365.105798258
4210,0.0
4236,0.0
4348,551947.3846058133
4473,0.0
2,1, 1, 1, 0,22, 0.00,60.00,Holiday
11,268709102.29319939
47,124250678.9999998
71,4835078.999999999
346,119415599.9999998
993,118816469.99999982
1017,118816469.99999982
1497,1636636.3872491425
1533,0.0
1557,0.0
2228,2584491.5069584765
2366,1636636.3872491425
4114,22724960.76710727
4126,8458341.339612136
4162,14199365.105798258
4210,0.0
4236,0.0
4348,332501.01913391347
4473,0.0
2,1, 1, 1, 0,23, 0.00,60.00,Holiday
11,210990908.32421667
47,95652278.99999984
71,4835078.999999999
346,90817199.99999984
993,90218069.99999985
1017,90218069.99999985
1497,1317442.7922020683
1533,0.0
1557,0.0
2228,2462852.8788065335
2366,1317442.7922020683
4114,22657706.445410395
4126,8458341.339612136
4162,14199365.105798258
4210,0.0
4236,0.0
4348,0.0
4473,0.0
2,1, 1, 1, 0,24, 0.00,60.00,Holiday
11,123528954.94815523
47,52754678.99999992
71,4835078.999999999
346,47919599.99999992
993,47320469.999999929
1017,47320469.999999929
1497,1034682.5347427123
1533,0.0
1557,0.0
2228,796099.5027448764
2366,1034682.5347427123
4114,22657706.445410395
4126,8458341.339612136
4162,14199365.105798258
4210,0.0
4236,0.0
4348,0.0
4473,0.0
2,2, 1, 2, 0, 1, 0.00,60.00,Friday
11,66320168.062178228
47,24156278.99999996
71,4835078.999999999
346,19321199.999999968
993,18722069.99999997
1017,18722069.99999997
1497,1027513.6398357569
1533,0.0
1557,0.0
2228,784112.6167678848
2366,1027513.6398357569
4114,22657706.445410395
4126,8458341.339612136
4162,14199365.105798258
4210,0.0
4236,0.0
4348,0.0
4473,0.0
2,2, 1, 2, 0, 2, 0.00,60.00,Friday
11,66326056.6515224
47,24156278.99999996
71,4835078.999999999
346,19321199.999999968
993,18722069.99999997
1017,18722069.99999997
1497,1031742.704745444
1533,0.0
1557,0.0
2228,790001.2061120612
2366,1031742.704745444
4114,22657706.445410395
4126,8458341.339612136
4162,14199365.105798258
4210,0.0
4236,0.0
4348,0.0
4473,0.0
2,2, 1, 2, 0, 3, 0.00,60.00,Friday
11,66326005.10976196
47,24156278.99999996
71,4835078.999999999
346,19321199.999999968
993,18722069.99999997
1017,18722069.99999997
1497,1031830.3313204581
1533,0.0
1557,0.0
2228,789949.6643516219
2366,1031830.3313204581
4114,22657706.445410395
4126,8458341.339612136
4162,14199365.105798258
4210,0.0
4236,0.0
4348,0.0
4473,0.0
2,2, 1, 2, 0, 4, 0.00,60.00,Friday
11,66320229.19251258
47,24156278.99999996
71,4835078.999999999
346,19321199.999999968
993,18722069.99999997
1017,18722069.99999997
1497,1027184.5809704468
1533,0.0
1557,0.0
2228,784173.7471022417
2366,1027184.5809704468
4114,22657706.445410395
4126,8458341.339612136
4162,14199365.105798258
4210,0.0
4236,0.0
4348,0.0
4473,0.0
2,2, 1, 2, 0, 5, 0.00,60.00,Friday
11,66320230.233907807
47,24156278.99999996
71,4835078.999999999
346,19321199.999999968
993,18722069.99999997
1017,18722069.99999997
1497,1027144.4043825097
1533,0.0
1557,0.0
2228,784174.7884974632
2366,1027144.4043825097
4114,22657706.445410395
4126,8458341.339612136
4162,14199365.105798258
4210,0.0
4236,0.0
4348,0.0
4473,0.0
2,2, 1, 2, 0, 6, 0.00,60.00,Friday
11,137297954.63242919
47,53890838.99999992
71,5971238.999999999
346,47919599.99999992
993,47871269.999999929
1017,47871269.999999929
1497,1033306.0681882696
1533,0.0
1557,0.0
2228,784226.9729221442
2366,1033306.0681882696
4114,24689867.024383878
4126,10490501.918585619
4162,14199365.105798258
4210,10061751.63512322
4236,0.0
4348,0.0
4473,0.0
2,2, 1, 2, 0, 7, 0.00,60.00,Friday
11,201168015.4499889
47,80361638.99999988
71,5971238.999999999
346,74390399.99999988
993,69320069.9999999
1017,69320069.9999999
1497,436024175.5340998
1533,28597212.921243654
1557,28597212.921243654
2228,784121.1856541203
2366,1031504.6928741729
4114,40119759.410948198
4126,20646061.38735122
4162,14199365.10579826
4210,9966345.04856124
4236,406395457.919982
4348,0.0
4473,616080.8048255646
2,2, 1, 2, 0, 8, 0.00,60.00,Friday
11,225909016.38454733
47,95961004.99793051
71,21570604.997930644
346,74390399.99999988
993,83139479.99999988
1017,83139479.99999988
1497,302439774.72340539
1533,28882321.086319496
1557,28882321.086319496
2228,3419203.589193817
2366,1670498.0034359496
4114,33518597.53029014
4126,16519577.605455207
4162,14199365.105798258
4210,9645364.502412353
4236,271886955.63364997
4348,0.0
4473,225365.76472057234
2,2, 1, 2, 0, 9, 0.00,60.00,Friday
11,285951064.02546516
47,125786025.79646087
71,51395625.796460989
346,74390399.99999988
993,112981499.99999987
1017,112981499.99999987
1497,191074210.53868608
1533,285108.16507584266
1557,285108.16507584266
2228,4075050.7388548229
2366,2404703.475105374
4114,33118745.0363552
4126,16519577.605455207
4162,14199365.105798258
4210,9786532.564257017
4236,188384398.89850486
4348,0.0
4473,203209.88953727333
2,2, 1, 2, 0,10, 0.00,60.00,Friday
11,343393978.1792164
47,151115978.41288195
71,76725578.412882
346,74390399.99999988
993,143958059.99999995
1017,143958059.99999995
1497,142248984.206329
1533,285108.16507584266
1557,285108.16507584266
2228,6153553.967965703
2366,2544431.5027220395
4114,33085036.63523766
4126,16569129.169419254
4162,14199365.105798258
4210,8882096.106102461
4236,139419444.5385311
4348,0.0
4473,199253.05702880468
2,2, 1, 2, 0,11, 0.00,60.00,Friday
11,301333706.259143
47,129391714.23710993
71,76450114.23710995
346,52941599.9999999
993,122509259.99999996
1017,122509259.99999996
1497,152613045.60975737
1533,513194.69713651677
1557,513194.69713651677
2228,7848443.080683967
2366,3022684.4514889998
4114,33787171.55956275
4126,16633978.713087768
4162,14199365.105798258
4210,7598105.978534905
4236,149077166.46113185
4348,0.0
4473,199011.40325156536
2,2, 1, 2, 0,12, 0.00,60.00,Friday
11,303818715.99854019
47,129175187.80610508
71,76233587.80610509
346,52941599.9999999
993,122509259.99999996
1017,122509259.99999996
1497,165329184.31160716
1533,11952079.865633984
1557,11952079.865633984
2228,10592365.866706685
2366,3798128.2288998549
4114,34165247.94889386
4126,16866209.983291676
4162,14199365.105798258
4210,7177788.406616912
4236,149578976.2170733
4348,0.0
4473,198865.97021784588
2,2, 1, 2, 0,13, 0.00,60.00,Friday
11,305294613.3839595
47,128925221.56508534
71,75983621.56508535
346,52941599.9999999
993,122509259.99999996
1017,122509259.99999996
1497,166711119.3693674
1533,11952079.865633984
1557,11952079.865633984
2228,11125171.11446123
2366,4302977.2449713279
4114,34398091.21909728
4126,16931993.504723014
4162,14199365.105798258
4210,8138129.420195081
4236,150456062.2587621
4348,0.0
4473,198740.06512061659
2,2, 1, 2, 0,14, 0.00,60.00,Friday
11,304886384.35145148
47,128854613.51014504
71,75913013.51014507
346,52941599.9999999
993,122509259.99999996
1017,122509259.99999996
1497,155707348.26678068
1533,513194.69713651677
1557,513194.69713651677
2228,11624604.53781356
2366,4140067.4403207807
4114,34666452.091084148
4126,17042312.980394044
4162,14199365.105798258
4210,7032826.817593539
4236,151054086.12932337
4348,0.0
4473,198627.3948153447
2,2, 1, 2, 0,15, 0.00,60.00,Friday
11,302701727.3456427
47,129260097.64005988
71,76318497.64005989
346,52941599.9999999
993,122509259.99999996
1017,122509259.99999996
1497,147330110.02632798
1533,427662.2476137639
1557,427662.2476137639
2228,9023161.420670499
2366,3150009.180699261
4114,34815461.16308751
4126,17227198.616733396
4162,14199365.105798258
4210,6895324.586033728
4236,143752438.59801496
4348,0.0
4473,198422.53579117079
2,2, 1, 2, 0,16, 0.00,60.00,Friday
11,302823658.56778219
47,129439769.63370653
71,76498169.63370654
346,52941599.9999999
993,122509259.99999996
1017,122509259.99999996
1497,125160269.42788418
1533,427662.2476137639
1557,427662.2476137639
2228,9066171.865607368
2366,3153772.4469918075
4114,34832291.46938652
4126,17825678.106879526
4162,14199365.105798258
4210,6777926.567292709
4236,121578834.7332786
4348,0.0
4473,198239.03178914445
2,2, 1, 2, 0,17, 0.00,60.00,Friday
11,302234185.334411
47,130492185.95930086
71,77550585.95930089
346,52941599.9999999
993,122509259.99999996
1017,122509259.99999996
1497,143825329.96452026
1533,29024875.168857416
1557,29024875.168857416
2228,8021431.274301792
2366,3398398.4771764546
4114,34293187.46838206
4126,17713992.466877305
4162,14199365.105798258
4210,6719893.793690852
4236,111402056.31848637
4348,0.0
4473,198226.83873558028
2,2, 1, 2, 0,18, 0.00,60.00,Friday
11,294725786.3103928
47,123776342.99999996
71,70834742.99999997
346,52941599.9999999
993,118102859.99999997
1017,118102859.99999997
1497,141202697.31383545
1533,29024875.168857416
1557,29024875.168857416
2228,9265172.119409133
2366,3028494.4052212347
4114,33708471.735469687
4126,17197852.216603839
4162,14199365.105798258
4210,9674708.752166052
4236,109149327.7397568
4348,0.0
4473,198230.7033480526
2,2, 1, 2, 0,19, 0.00,60.00,Friday
11,327433319.4231098
47,143344268.99999986
71,47505068.99999999
346,95839199.99999984
993,135564839.99999989
1017,135564839.99999989
1497,100789654.79610199
1533,28597212.921243654
1557,28597212.921243654
2228,7679601.502610517
2366,2904848.5680096636
4114,31250798.96484928
4126,16708880.296242895
4162,14199365.105798258
4210,9395522.791702047
4236,69287593.30684868
4348,0.0
4473,198287.16394831133
2,2, 1, 2, 0,20, 0.00,60.00,Friday
11,382430170.65970876
47,171942668.99999974
71,47505068.99999999
346,124437599.9999998
993,164163239.99999974
1017,164163239.99999974
1497,60523762.06587015
1533,0.0
1557,0.0
2228,6070948.338726859
2366,2157920.7613047196
4114,30796719.376063955
4126,16571033.775608492
4162,14199365.105798258
4210,9258372.030501057
4236,58365841.30456543
4348,0.0
4473,198221.91441721927
2,2, 1, 2, 0,21, 0.00,60.00,Friday
11,396327484.7168087
47,180270629.9999997
71,41533829.999999988
346,138736799.9999998
993,169616699.99999974
1017,169616699.99999974
1497,62553376.66884091
1533,0.0
1557,0.0
2228,6259884.05579563
2366,2405061.24159124
4114,30718942.711253466
4126,16519577.605455207
4162,14199365.105798258
4210,9263075.262258169
4236,60148315.42724966
4348,0.0
4473,198252.687501801
2,2, 1, 2, 0,22, 0.00,60.00,Friday
11,314150951.2561971
47,143777915.9999998
71,19340315.999999998
346,124437599.9999998
993,132085079.9999998
1017,132085079.9999998
1497,1956601.554430524
1533,0.0
1557,0.0
2228,4347417.454713725
2366,1956601.554430524
4114,24689867.024383878
4126,10490501.918585619
4162,14199365.105798258
4210,9250670.777099805
4236,0.0
4348,0.0
4473,0.0
2,2, 1, 2, 0,23, 0.00,60.00,Friday
11,224017697.12068445
47,96788438.99999984
71,5971238.999999999
346,90817199.99999984
993,90768869.99999985
1017,90768869.99999985
1497,1361430.826712864
1533,0.0
1557,0.0
2228,2522567.7661350306
2366,1361430.826712864
4114,24689867.024383878
4126,10490501.918585619
4162,14199365.105798258
4210,9247953.330165822
4236,0.0
4348,0.0
4473,0.0
2,2, 1, 2, 0,24, 0.00,60.00,Friday
11,135634548.55530203
47,52754678.99999992
71,4835078.999999999
346,47919599.99999992
993,47320469.999999929
1017,47320469.999999929
1497,1046203.9943419194
1533,0.0
1557,0.0
2228,1616391.4762126422
2366,1046203.9943419194
4114,24689867.024383878
4126,10490501.918585619
4162,14199365.105798258
4210,9253141.054705557
4236,0.0
4348,0.0
4473,0.0
2,3, 1, 3, 0, 1, 0.00,60.00,Saturday
11,67945267.98116917
47,24156278.99999996
71,4835078.999999999
346,19321199.999999968
993,18722069.99999997
1017,18722069.99999997
1497,1326287.031247421
1533,0.0
1557,0.0
2228,2409212.5357588289
2366,1326287.031247421
4114,22657706.445410395
4126,8458341.339612136
4162,14199365.105798258
4210,0.0
4236,0.0
4348,0.0
4473,0.0
2,3, 1, 3, 0, 2, 0.00,60.00,Saturday
11,67250506.09842505
47,24156278.99999996
71,4835078.999999999
346,19321199.999999968
993,18722069.99999997
1017,18722069.99999997
1497,1320114.5533711585
1533,0.0
1557,0.0
2228,1714450.6530147084
2366,1320114.5533711585
4114,22657706.445410395
4126,8458341.339612136
4162,14199365.105798258
4210,0.0
4236,0.0
4348,0.0
4473,0.0
2,3, 1, 3, 0, 3, 0.00,60.00,Saturday
11,67152629.62283367
47,24156278.99999996
71,4835078.999999999
346,19321199.999999968
993,18722069.99999997
1017,18722069.99999997
1497,1046154.0801074902
1533,0.0
1557,0.0
2228,1616574.1774233282
2366,1046154.0801074902
4114,22657706.445410395
4126,8458341.339612136
4162,14199365.105798258
4210,0.0
4236,0.0
4348,0.0
4473,0.0
2,3, 1, 3, 0, 4, 0.00,60.00,Saturday
11,66332181.50164349
47,24156278.99999996
71,4835078.999999999
346,19321199.999999968
993,18722069.99999997
1017,18722069.99999997
1497,1088820.5120295804
1533,0.0
1557,0.0
2228,796126.0562331429
2366,1088820.5120295804
4114,22657706.445410395
4126,8458341.339612136
4162,14199365.105798258
4210,0.0
4236,0.0
4348,0.0
4473,0.0
2,3, 1, 3, 0, 5, 0.00,60.00,Saturday
11,67146614.74531582
47,24156278.99999996
71,4835078.999999999
346,19321199.999999968
993,18722069.99999997
1017,18722069.99999997
1497,1664538.1014592294
1533,0.0
1557,0.0
2228,1591947.3661451373
2366,1243773.0505645374
4114,22676318.37917074
4126,8458341.339612136
4162,14199365.105798258
4210,0.0
4236,420765.05089469198
4348,0.0
4473,0.0
2,3, 1, 3, 0, 6, 0.00,60.00,Saturday
11,143657551.29495035
47,52754678.99999992
71,4835078.999999999
346,47919599.99999992
993,47320469.999999929
1017,47320469.999999929
1497,2231818.754967052
1533,0.0
1557,0.0
2228,796117.667225866
2366,1042729.4115151985
4114,24742464.672521235
4126,10490501.918585619
4162,14199365.105798258
4210,18043819.95520328
4236,1189089.3434518534
4348,0.0
4473,0.0
2,3, 1, 3, 0, 7, 0.00,60.00,Saturday
11,221097404.2813147
47,80361638.99999988
71,5971238.999999999
346,74390399.99999988
993,69320069.9999999
1017,69320069.9999999
1497,707466216.0550512
1533,28597212.921243654
1557,28597212.921243654
2228,1604347.0259440214
2366,1299899.5099313169
4114,48487381.511373858
4126,19356855.187642039
4162,14199365.105798258
4210,20782955.42547883
4236,677569103.6238763
4348,0.0
4473,541011.3185182299
2,3, 1, 3, 0, 8, 0.00,60.00,Saturday
11,223964583.23920793
47,83678153.41219576
71,9287753.412195884
346,74390399.99999988
993,73192139.99999988
1017,73192139.99999988
1497,508642044.08817127
1533,28597212.921243654
1557,28597212.921243654
2228,3563364.1306539217
2366,1691240.9380558083
4114,38571998.81443855
4126,16519577.605455207
4162,14199365.105798258
4210,24671735.1304434
4236,478353590.2288719
4348,0.0
4473,287191.75147639217
2,3, 1, 3, 0, 9, 0.00,60.00,Saturday
11,251030703.33306826
47,101356929.85666833
71,26966529.85666845
346,74390399.99999988
993,90883619.99999987
1017,90883619.99999987
1497,327100539.6556817
1533,285108.16507584266
1557,285108.16507584266
2228,4613231.300897023
2366,2021089.3654764209
4114,34632633.85730346
4126,16519577.605455207
4162,14199365.105798258
4210,19309567.32857058
4236,324794342.12512949
4348,0.0
4473,234720.98962894229
2,3, 1, 3, 0,10, 0.00,60.00,Saturday
11,280842068.4145435
47,118112971.2629288
71,43722571.26292892
346,74390399.99999988
993,114116039.99999988
1017,114116039.99999988
1497,161057978.5332751
1533,285108.16507584266
1557,285108.16507584266
2228,4739358.043949644
2366,2080963.9526016517
4114,32280855.522703224
4126,16563717.759214979
4162,14199365.105798258
4210,11389097.158851937
4236,158691906.41559763
4348,0.0
4473,203746.42611002003
2,3, 1, 3, 0,11, 0.00,60.00,Saturday
11,281970835.8304474
47,116762231.45411136
71,63820631.45411137
346,52941599.9999999
993,115899659.99999997
1017,115899659.99999997
1497,92279244.6807189
1533,513194.69713651677
1557,513194.69713651677
2228,7767238.464145349
2366,2825241.186729838
4114,31744175.109721945
4126,16685644.891305553
4162,14199365.105798258
4210,9598839.099882678
4236,88940808.79685255
4348,0.0
4473,198691.70258613848
2,3, 1, 3, 0,12, 0.00,60.00,Saturday
11,283692659.4850442
47,116751241.66833547
71,63809641.66833548
346,52941599.9999999
993,115899659.99999997
1017,115899659.99999997
1497,47749351.23893004
1533,11952079.865633984
1557,11952079.865633984
2228,10149324.681037996
2366,3205525.0486709626
4114,31525815.67381141
4126,16959545.362478846
4162,14199365.105798258
4210,8203114.607501013
4236,32591746.32462509
4348,965154.9000370288
4473,198347.9543213938
2,3, 1, 3, 0,13, 0.00,60.00,Saturday
11,282494926.8251726
47,113338400.29160284
71,60396800.29160286
346,52941599.9999999
993,114247259.99999997
1017,114247259.99999997
1497,24574663.600776309
1533,11952079.865633984
1557,11952079.865633984
2228,11444901.28186724
2366,3548797.5664875137
4114,32112585.9418049
4126,17182135.69761751
4162,14199365.105798258
4210,7597242.319984252
4236,9073786.16865481
4348,3555710.980310996
4473,198826.00960251119
2,3, 1, 3, 0,14, 0.00,60.00,Saturday
11,285292238.6235903
47,113119083.47776437
71,60177483.477764379
346,52941599.9999999
993,114247259.99999997
1017,114247259.99999997
1497,6689168.241410421
1533,513194.69713651677
1557,513194.69713651677
2228,11179597.927604355
2366,3234470.5005642625
4114,33138195.121135843
4126,17845104.954103207
4162,14199365.105798258
4210,6620701.188396046
4236,2941503.0437096424
4348,6788368.458029235
4473,199032.45066055197
2,3, 1, 3, 0,15, 0.00,60.00,Saturday
11,286153702.9613328
47,113072878.54193539
71,60131278.5419354
346,52941599.9999999
993,114247259.99999997
1017,114247259.99999997
1497,6093339.177467583
1533,427662.2476137639
1557,427662.2476137639
2228,9202765.258559656
2366,2978895.4899633016
4114,33814122.581598658
4126,18365725.14966059
4162,14199365.105798258
4210,5722020.718160746
4236,2686781.439890517
4348,9895614.320069414
4473,199041.5410090127
2,3, 1, 3, 0,16, 0.00,60.00,Saturday
11,284342580.68865266
47,113446516.95103574
71,60504916.95103576
346,52941599.9999999
993,114247259.99999997
1017,114247259.99999997
1497,5902376.870207481
1533,427662.2476137639
1557,427662.2476137639
2228,8456764.367068099
2366,2939057.3050231209
4114,33885738.64610255
4126,18647460.474061807
4162,14199365.105798258
4210,5377923.964808295
4236,2535657.317570598
4348,8729329.921952568
4473,199046.8376854984
2,3, 1, 3, 0,17, 0.00,60.00,Saturday
11,283989217.67854478
47,117794751.06260017
71,64853151.06260019
346,52941599.9999999
993,114247259.99999997
1017,114247259.99999997
1497,34461101.15932816
1533,29024875.168857416
1557,29024875.168857416
2228,9261695.559140303
2366,2937230.822103658
4114,33383852.301586223
4126,18781076.048558937
4162,14199365.105798258
4210,5958607.6488274619
4236,2498995.1683670927
4348,3144003.391904365
4473,199047.71448634793
2,3, 1, 3, 0,18, 0.00,60.00,Saturday
11,273094410.9590701
47,111937382.99999996
71,64017782.99999998
346,47919599.99999992
993,113145659.99999997
1017,113145659.99999997
1497,34335865.96149778
1533,28597212.921243654
1557,28597212.921243654
2228,8051136.713672025
2366,2550914.31522076
4114,32264564.88960149
4126,18059984.832961576
4162,14199365.105798258
4210,7470731.020043011
4236,3187738.7250333728
4348,25915.78804593179
4473,199019.54770774826
2,3, 1, 3, 0,19, 0.00,60.00,Saturday
11,302087023.5642349
47,128942549.99999987
71,38125349.999999988
346,90817199.99999984
993,125066699.99999988
1017,125066699.99999988
1497,63611794.02078513
1533,28597212.921243654
1557,28597212.921243654
2228,8922252.536398964
2366,2748160.0289048238
4114,30726283.696805464
4126,16526918.591007205
4162,14199365.105798258
4210,8230972.021312264
4236,32266421.070636654
4348,0.0
4473,198265.30971845354
2,3, 1, 3, 0,20, 0.00,60.00,Saturday
11,316235095.46284589
47,142745273.9999998
71,23329673.999999994
346,119415599.9999998
993,138176819.9999998
1017,138176819.9999998
1497,60457611.837611649
1533,0.0
1557,0.0
2228,6189448.6863942439
2366,2199851.087271007
4114,28725065.910284997
4126,14487514.632840138
4162,14199365.105798258
4210,10430.494453897856
4236,58257760.75034064
4348,189802.91317078146
4473,198253.4585422693
2,3, 1, 3, 0,21, 0.00,60.00,Saturday
11,344996666.96461567
47,157044473.99999977
71,23329673.999999994
346,133714799.99999979
993,152476019.99999977
1017,152476019.99999977
1497,116403563.17299345
1533,0.0
1557,0.0
2228,5789979.584644199
2366,2037011.3312378652
4114,28817123.73212774
4126,14487417.026481722
4162,14199365.105798258
4210,20476.236459017666
4236,114366551.8417556
4348,647752.6447993148
4473,200840.76658567985
2,3, 1, 3, 0,22, 0.00,60.00,Saturday
11,283351136.143766
47,127949597.9999998
71,8533997.999999999
346,119415599.9999998
993,122688539.9999998
1017,122688539.9999998
1497,204206073.56916348
1533,0.0
1557,0.0
2228,3625976.018576974