Program Version,EnergyPlus, Version 9.0.1-bb7ca4f0da, YMD=2019.12.18 16:07
1,5,Environment Title[],Latitude[deg],Longitude[deg],Time Zone[],Elevation[m]
2,8,Day of Simulation[],Month[],Day of Month[],DST Indicator[1=yes 0=no],Hour[],StartMinute[],EndMinute[],DayType
3,5,Cumulative Day of Simulation[],Month[],Day of Month[],DST Indicator[1=yes 0=no],DayType  ! When Daily Meters Requested
4,2,Cumulative Days of Simulation[],Month[]  ! When Monthly Meters Requested
5,1,Cumulative Days of Simulation[] ! When Run Period Meters Requested
6,1,Calendar Year of Simulation[] ! When Annual Meters Requested
1557,1,Receptacle:InteriorEquipment:Gas [J] !Hourly
47,1,InteriorLights:Electricity [J] !Hourly
11,1,Electricity:Facility [J] !Hourly
1497,1,Gas:Facility [J] !Hourly
993,1,InteriorEquipment:Electricity [J] !Hourly
4114,1,Fans:Electricity [J] !Hourly
4471,1,Pumps:Electricity [J] !Hourly
4235,1,Heating:Electricity [J] !Hourly
4350,1,Cooling:Electricity [J] !Hourly
2228,1,WaterSystems:Electricity [J] !Hourly
1533,1,InteriorEquipment:Gas [J] !Hourly
4222,1,Heating:Gas [J] !Hourly
2366,1,WaterSystems:Gas [J] !Hourly
1017,1,Receptacle:InteriorEquipment:Electricity [J] !Hourly
71,1,ComplianceLtg:InteriorLights:Electricity [J] !Hourly
346,1,NonComplianceLtg:InteriorLights:Electricity [J] !Hourly
4126,1,General:Fans:Electricity [J] !Hourly
4162,1,ProcessMotors:Fans:Electricity [J] !Hourly
End of Data Dictionary
1,FULLERTON_722976_CZ2010,  33.87,-117.98,  -8.00,  29.00
2,1, 1, 1, 0, 1, 0.00,60.00,Holiday
11,66338212.849276367
47,24156278.99999996
71,4835078.999999999
346,19321199.999999968
993,18722069.99999997
1017,18722069.99999997
1497,1039512.5476777211
1533,0.0
1557,0.0
2228,802157.403866025
2366,1039512.5476777211
4114,22657706.445410395
4126,8458341.339612136
4162,14199365.105798258
4222,0.0
4235,0.0
4350,0.0
4471,0.0
2,1, 1, 1, 0, 2, 0.00,60.00,Holiday
11,67140463.20029009
47,24156278.99999996
71,4835078.999999999
346,19321199.999999968
993,18722069.99999997
1017,18722069.99999997
1497,1039458.6292759162
1533,0.0
1557,0.0
2228,1604407.7548797415
2366,1039458.6292759162
4114,22657706.445410395
4126,8458341.339612136
4162,14199365.105798258
4222,0.0
4235,0.0
4350,0.0
4471,0.0
2,1, 1, 1, 0, 3, 0.00,60.00,Holiday
11,67140201.09082935
47,24156278.99999996
71,4835078.999999999
346,19321199.999999968
993,18722069.99999997
1017,18722069.99999997
1497,1063540.4391587629
1533,0.0
1557,0.0
2228,1604145.645419015
2366,1063540.4391587629
4114,22657706.445410395
4126,8458341.339612136
4162,14199365.105798258
4222,0.0
4235,0.0
4350,0.0
4471,0.0
2,1, 1, 1, 0, 4, 0.00,60.00,Holiday
11,66342968.10610877
47,24156278.99999996
71,4835078.999999999
346,19321199.999999968
993,18722069.99999997
1017,18722069.99999997
1497,1493625.8697059579
1533,0.0
1557,0.0
2228,795983.9674749089
2366,1269275.949187554
4114,22668635.138633908
4126,8458341.339612136
4162,14199365.105798258
4222,224349.9205184038
4235,0.0
4350,0.0
4471,0.0
2,1, 1, 1, 0, 5, 0.00,60.00,Holiday
11,66561729.32483418
47,24156278.99999996
71,4835078.999999999
346,19321199.999999968
993,18722069.99999997
1017,18722069.99999997
1497,6315271.6518725459
1533,0.0
1557,0.0
2228,796043.9380438516
2366,1034259.1287817657
4114,22887336.386790374
4126,8458341.339612136
4162,14199365.105798258
4222,5281012.52309078
4235,0.0
4350,0.0
4471,0.0
2,1, 1, 1, 0, 6, 0.00,60.00,Holiday
11,126713900.13897664
47,52754678.99999992
71,4835078.999999999
346,47919599.99999992
993,47320469.999999929
1017,47320469.999999929
1497,70451692.30722118
1533,0.0
1557,0.0
2228,1592130.222324199
2366,1040710.8320977099
4114,25046620.916652495
4126,10490501.918585619
4162,14199365.105798258
4222,69410981.47512347
4235,0.0
4350,0.0
4471,0.0
2,1, 1, 1, 0, 7, 0.00,60.00,Holiday
11,186309992.22086407
47,74203478.99999988
71,4835078.999999999
346,69368399.9999999
993,68769269.9999999
1017,68769269.9999999
1497,478762894.009462
1533,28597212.921243654
1557,28597212.921243654
2228,1604220.3518155963
2366,1039568.6274536542
4114,41733022.869048718
4126,10490501.918585619
4162,14199365.105798258
4222,449126112.46076467
4235,0.0
4350,0.0
4471,0.0
2,1, 1, 1, 0, 8, 0.00,60.00,Holiday
11,179358037.79733617
47,74180188.76894257
71,4811788.768942688
346,69368399.9999999
993,68769269.9999999
1017,68769269.9999999
1497,320288910.6034386
1533,28597212.921243654
1557,28597212.921243654
2228,1641967.7190511579
2366,1317326.4242778642
4114,34766611.309342589
4126,10490501.918585619
4162,14199365.105798258
4222,290374371.25791707
4235,0.0
4350,0.0
4471,0.0
2,1, 1, 1, 0, 9, 0.00,60.00,Holiday
11,197466385.29287226
47,77608925.50052455
71,8240525.500524677
346,69368399.9999999
993,72641339.99999988
1017,72641339.99999988
1497,569219527.7295317
1533,0.0
1557,0.0
2228,2502039.0700287416
2366,1329733.2757735064
4114,43963469.923096287
4126,22994087.569865847
4162,14199365.105798258
4222,567889794.4537581
4235,72800.19184395754
4350,0.0
4471,677810.6073787699
2,1, 1, 1, 0,10, 0.00,60.00,Holiday
11,186688115.0863474
47,77332024.61351493
71,7963624.613515057
346,69368399.9999999
993,72641339.99999988
1017,72641339.99999988
1497,400890344.4707859
1533,0.0
1557,0.0
2228,2542750.643273466
2366,1342378.0873069843
4114,33860038.04271159
4126,16522834.361470227
4162,14199365.105798258
4222,399547966.383479
4235,50308.8686828521
4350,0.0
4471,261652.91816462548
2,1, 1, 1, 0,11, 0.00,60.00,Holiday
11,189031655.980277
47,76656914.19893429
71,28737314.19893434
346,47919599.99999992
993,74424959.99999996
1017,74424959.99999996
1497,262322451.633493
1533,0.0
1557,0.0
2228,4892071.445531025
2366,2023432.3996241256
4114,32823950.007837267
4126,16519577.605455207
4162,14199365.105798258
4222,260299019.23386885
4235,27143.428974776798
4350,0.0
4471,206616.89899975508
2,1, 1, 1, 0,12, 0.00,60.00,Holiday
11,187185785.2850268
47,75797434.10748202
71,27877834.107482058
346,47919599.99999992
993,74424959.99999996
1017,74424959.99999996
1497,152682825.92886783
1533,11438885.168497468
1557,11438885.168497468
2228,5830254.452312791
2366,2053312.1504815445
4114,30919235.358622694
4126,16519577.605455209
4162,14199365.105798258
4222,139190628.6098888
4235,14824.352482748709
4350,0.0
4471,199077.01412666474
2,1, 1, 1, 0,13, 0.00,60.00,Holiday
11,216098846.92251236
47,85714508.37005495
71,37794908.37005497
346,47919599.99999992
993,89913239.99999997
1017,89913239.99999997
1497,72252305.94129205
1533,11438885.168497468
1557,11438885.168497468
2228,7222658.176256941
2366,2409426.14777638
4114,30718942.711253466
4126,16519577.605455209
4162,14199365.105798258
4222,58403994.625018198
4235,2864.761469680141
4350,2328060.3647529475
4471,198572.53872446449
2,1, 1, 1, 0,14, 0.00,60.00,Holiday
11,218943749.78440497
47,86104164.59200159
71,38184564.59200161
346,47919599.99999992
993,89913239.99999997
1017,89913239.99999997
1497,50152386.15575061
1533,0.0
1557,0.0
2228,6190466.443407009
2366,2286673.182208596
4114,30725947.796804668
4126,16519577.605455207
4162,14199365.105798258
4222,47865712.97354202
4235,1979.7553805776698
4350,5809233.158398554
4471,198718.03841268528
2,1, 1, 1, 0,15, 0.00,60.00,Holiday
11,224101944.02036507
47,86846403.79477188
71,38926803.79477192
346,47919599.99999992
993,89913239.99999997
1017,89913239.99999997
1497,44284867.03841438
1533,0.0
1557,0.0
2228,7081611.539917925
2366,2222878.040601837
4114,30798780.48325346
4126,16519577.605455207
4162,14199365.105798258
4222,42061988.997812557
4235,1816.6198659161146
4350,9261348.217452616
4471,198743.3651033369
2,1, 1, 1, 0,16, 0.00,60.00,Holiday
11,221930461.34761776
47,86208929.71018201
71,38289329.71018203
346,47919599.99999992
993,89913239.99999997
1017,89913239.99999997
1497,45060825.08678025
1533,0.0
1557,0.0
2228,6128778.000365131
2366,2086943.2431624477
4114,30873440.95904641
4126,16526489.636521312
4162,14199365.105798258
4222,42973881.843617808
4235,1718.194347056557
4350,8605594.79763306
4471,198759.68604418858
2,1, 1, 1, 0,17, 0.00,60.00,Holiday
11,223949068.73424573
47,89242826.3390228
71,41323226.339022818
346,47919599.99999992
993,89913239.99999997
1017,89913239.99999997
1497,76675606.71103226
1533,28597212.921243654
1557,28597212.921243654
2228,7293214.349875818
2366,2411403.4713770758
4114,30795016.898171478
4126,16542549.07916877
4162,14199365.105798258
4222,45666990.31841153
4235,1669.4517366206367
4350,6504333.945555322
4471,198767.74988379089
2,1, 1, 1, 0,18, 0.00,60.00,Holiday
11,194460523.83049495
47,78647111.99999994
71,30727511.99999999
346,47919599.99999992
993,74424959.99999996
1017,74424959.99999996
1497,102137281.37453503
1533,28597212.921243654
1557,28597212.921243654
2228,6069960.935208073
2366,2076085.96519342
4114,30719147.510176913
4126,16519577.605455207
4162,14199365.105798258
4222,71463982.48809797
4235,5658.939888565223
4350,4395416.203961122
4471,198268.24126042098
2,1, 1, 1, 0,19, 0.00,60.00,Holiday
11,243055582.45736797
47,106749035.99999982
71,15931835.999999995
346,90817199.99999984
993,101834279.99999984
1017,101834279.99999984
1497,110264432.27895808
1533,28597212.921243654
1557,28597212.921243654
2228,4652314.822945145
2366,1982825.6633989309
4114,28686782.132279979
4126,14487417.026481722
4162,14199365.105798258
4222,79684393.69431551
4235,14266.727999598086
4350,920082.9733250769
4471,198819.80081839147
2,1, 1, 1, 0,20, 0.00,60.00,Holiday
11,270461780.17879006
47,124250678.9999998
71,4835078.999999999
346,119415599.9999998
993,118816469.99999982
1017,118816469.99999982
1497,1716777.829817127
1533,0.0
1557,0.0
2228,4736924.733379926
2366,1716777.829817127
4114,22657706.445410395
4126,8458341.339612136
4162,14199365.105798258
4222,0.0
4235,0.0
4350,0.0
4471,0.0
2,1, 1, 1, 0,21, 0.00,60.00,Holiday
11,299341250.48119446
47,138549878.9999998
71,4835078.999999999
346,133714799.99999979
993,133115669.99999979
1017,133115669.99999979
1497,1666515.8666364772
1533,0.0
1557,0.0
2228,4492462.312131676
2366,1666515.8666364772
4114,22746075.60215068
4126,8458341.339612136
4162,14199365.105798258
4222,0.0
4235,0.0
4350,437163.5669124139
4471,0.0
2,1, 1, 1, 0,22, 0.00,60.00,Holiday
11,268639815.0104093
47,124250678.9999998
71,4835078.999999999
346,119415599.9999998
993,118816469.99999982
1017,118816469.99999982
1497,1636635.9473017934
1533,0.0
1557,0.0
2228,2584491.146083456
2366,1636635.9473017934
4114,22713304.15548549
4126,8458341.339612136
4162,14199365.105798258
4222,0.0
4235,0.0
4350,274870.7088406078
4471,0.0
2,1, 1, 1, 0,23, 0.00,60.00,Holiday
11,210990908.45344243
47,95652278.99999984
71,4835078.999999999
346,90817199.99999984
993,90218069.99999985
1017,90218069.99999985
1497,1317443.0128813326
1533,0.0
1557,0.0
2228,2462853.0080322858
2366,1317443.0128813326
4114,22657706.445410395
4126,8458341.339612136
4162,14199365.105798258
4222,0.0
4235,0.0
4350,0.0
4471,0.0
2,1, 1, 1, 0,24, 0.00,60.00,Holiday
11,123528954.98963049
47,52754678.99999992
71,4835078.999999999
346,47919599.99999992
993,47320469.999999929
1017,47320469.999999929
1497,1034682.2536177364
1533,0.0
1557,0.0
2228,796099.5442201563
2366,1034682.2536177364
4114,22657706.445410395
4126,8458341.339612136
4162,14199365.105798258
4222,0.0
4235,0.0
4350,0.0
4471,0.0
2,2, 1, 2, 0, 1, 0.00,60.00,Friday
11,66320166.92769679
47,24156278.99999996
71,4835078.999999999
346,19321199.999999968
993,18722069.99999997
1017,18722069.99999997
1497,1027513.3645870227
1533,0.0
1557,0.0
2228,784111.4822864435
2366,1027513.3645870227
4114,22657706.445410395
4126,8458341.339612136
4162,14199365.105798258
4222,0.0
4235,0.0
4350,0.0
4471,0.0
2,2, 1, 2, 0, 2, 0.00,60.00,Friday
11,66326056.69316355
47,24156278.99999996
71,4835078.999999999
346,19321199.999999968
993,18722069.99999997
1017,18722069.99999997
1497,1031742.4212682528
1533,0.0
1557,0.0
2228,790001.247753213
2366,1031742.4212682528
4114,22657706.445410395
4126,8458341.339612136
4162,14199365.105798258
4222,0.0
4235,0.0
4350,0.0
4471,0.0
2,2, 1, 2, 0, 3, 0.00,60.00,Friday
11,66326005.15152815
47,24156278.99999996
71,4835078.999999999
346,19321199.999999968
993,18722069.99999997
1017,18722069.99999997
1497,1031830.0505447509
1533,0.0
1557,0.0
2228,789949.7061178093
2366,1031830.0505447509
4114,22657706.445410395
4126,8458341.339612136
4162,14199365.105798258
4222,0.0
4235,0.0
4350,0.0
4471,0.0
2,2, 1, 2, 0, 4, 0.00,60.00,Friday
11,66320229.2335067
47,24156278.99999996
71,4835078.999999999
346,19321199.999999968
993,18722069.99999997
1017,18722069.99999997
1497,1027184.3029580112
1533,0.0
1557,0.0
2228,784173.7880963669
2366,1027184.3029580112
4114,22657706.445410395
4126,8458341.339612136
4162,14199365.105798258
4222,0.0
4235,0.0
4350,0.0
4471,0.0
2,2, 1, 2, 0, 5, 0.00,60.00,Friday
11,66320230.274856399
47,24156278.99999996
71,4835078.999999999
346,19321199.999999968
993,18722069.99999997
1017,18722069.99999997
1497,1027144.1267207192
1533,0.0
1557,0.0
2228,784174.8294460586
2366,1027144.1267207192
4114,22657706.445410395
4126,8458341.339612136
4162,14199365.105798258
4222,0.0
4235,0.0
4350,0.0
4471,0.0
2,2, 1, 2, 0, 6, 0.00,60.00,Friday
11,127236203.03821115
47,53890838.99999992
71,5971238.999999999
346,47919599.99999992
993,47871269.999999929
1017,47871269.999999929
1497,60890991.120848249
1533,0.0
1557,0.0
2228,784227.0138273224
2366,1033305.7907493527
4114,24689867.024383878
4126,10490501.918585619
4162,14199365.105798258
4222,59857685.33009889
4235,0.0
4350,0.0
4471,0.0
2,2, 1, 2, 0, 7, 0.00,60.00,Friday
11,190607088.3360684
47,80361638.99999988
71,5971238.999999999
346,74390399.99999988
993,69320069.9999999
1017,69320069.9999999
1497,495423019.4190393
1533,28597212.921243654
1557,28597212.921243654
2228,784121.9766055413
2366,1031424.8967012692
4114,39426277.89038345
4126,20171179.43485873
4162,14199365.10579826
4222,465794381.6010945
4235,58396.086615346765
4350,0.0
4471,656583.3824642499
2,2, 1, 2, 0, 8, 0.00,60.00,Friday
11,216253051.37316085
47,95961004.99793051
71,21570604.997930644
346,74390399.99999988
993,83139479.99999988
1017,83139479.99999988
1497,362445528.4385922
1533,28882321.086319496
1557,28882321.086319496
2228,3419203.7810138196
2366,1670497.94174488
4114,33470183.194187285
4126,16519577.605455207
4162,14199365.105798258
4222,331892709.4105278
4235,37692.27637264797
4350,0.0
4471,225487.12365667529
2,2, 1, 2, 0, 9, 0.00,60.00,Friday
11,276168661.2177333
47,125786025.79646087
71,51395625.796460989
346,74390399.99999988
993,112981499.99999987
1017,112981499.99999987
1497,250861123.07070438
1533,285108.16507584266
1557,285108.16507584266
2228,4075367.0513009538
2366,2404703.3890083788
4114,33098549.206856509
4126,16519577.605455207
4162,14199365.105798258
4222,248171311.51662017
4235,24012.02419626397
4350,0.0
4471,203207.1389188348
2,2, 1, 2, 0,10, 0.00,60.00,Friday
11,334535017.37427106
47,151115978.41288195
71,76725578.412882
346,74390399.99999988
993,143958059.99999995
1017,143958059.99999995
1497,201464762.5420183
1533,285108.16507584266
1557,285108.16507584266
2228,6153554.288266672
2366,2544431.431163287
4114,33092588.242450008
4126,16569127.062724673
4162,14199365.105798258
4222,198635222.94577918
4235,15583.716763754812
4350,0.0
4471,199252.71390873084
2,2, 1, 2, 0,11, 0.00,60.00,Friday
11,293778178.92343506
47,129391714.23710993
71,76450114.23710995
346,52941599.9999999
993,122509259.99999996
1017,122509259.99999996
1497,205426681.50419969
1533,513194.69713651677
1557,513194.69713651677
2228,7848442.713502749
2366,3022684.444570491
4114,33815015.57280147
4126,16633980.845306322
4162,14199365.105798258
4222,201890802.36249266
4235,14734.992211347475
4350,0.0
4471,199011.40780967504
2,2, 1, 2, 0,12, 0.00,60.00,Friday
11,296729577.44218769
47,129175187.80610508
71,76233587.80610509
346,52941599.9999999
993,122509259.99999996
1017,122509259.99999996
1497,214958397.39756418
1533,11952079.865633984
1557,11952079.865633984
2228,10591912.958248534
2366,3798128.106377908
4114,34240116.28359239
4126,16866215.05360277
4162,14199365.105798258
4222,199208189.42555229
4235,14234.423761058115
4350,0.0
4471,198865.97048071237
2,2, 1, 2, 0,13, 0.00,60.00,Friday
11,297237005.65046808
47,128925221.56508534
71,75983621.56508535
346,52941599.9999999
993,122509259.99999996
1017,122509259.99999996
1497,223095723.6923483
1533,11952079.865633984
1557,11952079.865633984
2228,11125172.9543202
2366,4302953.91457253
4114,34464895.709422219
4126,16932005.19962904
4162,14199365.105798258
4222,206840689.9121418
4235,13715.338348308485
4350,0.0
4471,198740.08329213455
2,2, 1, 2, 0,14, 0.00,60.00,Friday
11,297931112.3385235
47,128854613.51014504
71,75913013.51014507
346,52941599.9999999
993,122509259.99999996
1017,122509259.99999996
1497,203694426.18907554
1533,513194.69713651677
1557,513194.69713651677
2228,11625023.574076835
2366,4140090.334354697
4114,34730405.01777578
4126,17042279.67537322
4162,14199365.105798258
4222,199041141.1575843
4235,13182.804816086715
4350,0.0
4471,198627.43170987722
2,2, 1, 2, 0,15, 0.00,60.00,Friday
11,295878135.8341001
47,129260097.64005988
71,76318497.64005989
346,52941599.9999999
993,122509259.99999996
1017,122509259.99999996
1497,194175717.4615292
1533,427662.2476137639
1557,427662.2476137639
2228,9022793.142868795
2366,3150009.152091184
4114,34875541.6852886
4126,17227218.38391081
4162,14199365.105798258
4222,190598046.0618243
4235,12020.795539739342
4350,0.0
4471,198422.5703432525
2,2, 1, 2, 0,16, 0.00,60.00,Friday
11,296107394.61844077
47,129439769.63370653
71,76498169.63370654
346,52941599.9999999
993,122509259.99999996
1017,122509259.99999996
1497,171079523.02653227
1533,427662.2476137639
1557,427662.2476137639
2228,9066173.043214562
2366,3153742.302851843
4114,34883547.657671909
4126,17825685.147777678
4162,14199365.105798258
4222,167498118.47606666
4235,10405.215611623473
4350,0.0
4471,198239.0682362814
2,2, 1, 2, 0,17, 0.00,60.00,Friday
11,295586282.4416015
47,130492185.95930086
71,77550585.95930089
346,52941599.9999999
993,122509259.99999996
1017,122509259.99999996
1497,189214733.2861436
1533,29024875.168857416
1557,29024875.168857416
2228,8021429.814875763
2366,3398429.70005881
4114,34354866.91381181
4126,17713957.431189896
4162,14199365.105798258
4222,156791428.41722737
4235,10312.90697912153
4350,0.0
4471,198226.84663400678
2,2, 1, 2, 0,18, 0.00,60.00,Friday
11,285127796.44250789
47,123776342.99999996
71,70834742.99999997
346,52941599.9999999
993,118102859.99999997
1017,118102859.99999997
1497,200934089.23617286
1533,29024875.168857416
1557,29024875.168857416
2228,9265173.315101363
2366,3028494.387453625
4114,33775002.29225655
4126,17197838.87070229
4162,14199365.105798258
4222,168880719.6798618
4235,10187.127949576381
4350,0.0
4471,198230.70720053093
2,2, 1, 2, 0,19, 0.00,60.00,Friday
11,318075559.98295876
47,143344268.99999986
71,47505068.99999999
346,95839199.99999984
993,135564839.99999989
1017,135564839.99999989
1497,160073993.96726049
1533,28597212.921243654
1557,28597212.921243654
2228,7679601.27712279
2366,2904848.60353111
4114,31277543.806737927
4126,16708882.41925769
4162,14199365.105798258
4222,128571932.44248574
4235,11018.73620315948
4350,0.0
4471,198287.16289510323
2,2, 1, 2, 0,20, 0.00,60.00,Friday
11,373184678.59179428
47,171942668.99999974
71,47505068.99999999
346,124437599.9999998
993,164163239.99999974
1017,164163239.99999974
1497,119749663.43478465
1533,0.0
1557,0.0
2228,6070948.968935051
2366,2157875.710781999
4114,30799255.406468318
4126,16571034.822897006
4162,14199365.105798258
4222,117591787.72400266
4235,10343.302475010758
4350,0.0
4471,198221.91391627288
2,2, 1, 2, 0,21, 0.00,60.00,Friday
11,387075734.083466
47,180270629.9999997
71,41533829.999999988
346,138736799.9999998
993,169616699.99999974
1017,169616699.99999974
1497,121787680.05612143
1533,0.0
1557,0.0
2228,6260439.710605104
2366,2405106.4985284137
4114,30718942.711253466
4126,16519577.605455207
4162,14199365.105798258
4222,119382573.55759302
4235,10768.974629693043
4350,0.0
4471,198252.68697812878
2,2, 1, 2, 0,22, 0.00,60.00,Friday
11,304899773.4953313
47,143777915.9999998
71,19340315.999999998
346,124437599.9999998
993,132085079.9999998
1017,132085079.9999998
1497,61189573.943189147
1533,0.0
1557,0.0
2228,4346910.470947716
2366,1956542.7115606133
4114,24689867.024383878
4126,10490501.918585619
4162,14199365.105798258
4222,59233031.23162853
4235,0.0
4350,0.0
4471,0.0
2,2, 1, 2, 0,23, 0.00,60.00,Friday
11,214769744.01482464
47,96788438.99999984
71,5971238.999999999
346,90817199.99999984
993,90768869.99999985
1017,90768869.99999985
1497,60592427.62157428
1533,0.0
1557,0.0
2228,2522567.9904410627
2366,1361486.3751907787
4114,24689867.024383878
4126,10490501.918585619
4162,14199365.105798258
4222,59230941.246383499
4235,0.0
4350,0.0
4471,0.0
2,2, 1, 2, 0,24, 0.00,60.00,Friday
11,126381407.64701662
47,52754678.99999992
71,4835078.999999999
346,47919599.99999992
993,47320469.999999929
1017,47320469.999999929
1497,60281135.07969692
1533,0.0
1557,0.0
2228,1616391.6226327858
2366,1046203.9650434217
4114,24689867.024383878
4126,10490501.918585619
4162,14199365.105798258
4222,59234931.1146535
4235,0.0
4350,0.0
4471,0.0
2,3, 1, 3, 0, 1, 0.00,60.00,Saturday
11,67946307.31485324
47,24156278.99999996
71,4835078.999999999
346,19321199.999999968
993,18722069.99999997
1017,18722069.99999997
1497,1326286.9946565103
1533,0.0
1557,0.0
2228,2410251.869442897
2366,1326286.9946565103
4114,22657706.445410395
4126,8458341.339612136
4162,14199365.105798258
4222,0.0
4235,0.0
4350,0.0
4471,0.0
2,3, 1, 3, 0, 2, 0.00,60.00,Saturday
11,67249475.64043309
47,24156278.99999996
71,4835078.999999999
346,19321199.999999968
993,18722069.99999997
1017,18722069.99999997
1497,1320114.5171201903
1533,0.0
1557,0.0
2228,1713420.1950227572
2366,1320114.5171201903
4114,22657706.445410395
4126,8458341.339612136
4162,14199365.105798258
4222,0.0
4235,0.0
4350,0.0
4471,0.0
2,3, 1, 3, 0, 3, 0.00,60.00,Saturday
11,67152629.40913299
47,24156278.99999996
71,4835078.999999999
346,19321199.999999968
993,18722069.99999997
1017,18722069.99999997
1497,1046154.026870605
1533,0.0
1557,0.0
2228,1616573.9637226514
2366,1046154.026870605
4114,22657706.445410395
4126,8458341.339612136
4162,14199365.105798258
4222,0.0
4235,0.0
4350,0.0
4471,0.0
2,3, 1, 3, 0, 4, 0.00,60.00,Saturday
11,66332181.56604227
47,24156278.99999996
71,4835078.999999999
346,19321199.999999968
993,18722069.99999997
1017,18722069.99999997
1497,1088751.9660064709
1533,0.0
1557,0.0
2228,796126.1206319259
2366,1088751.9660064709
4114,22657706.445410395
4126,8458341.339612136
4162,14199365.105798258
4222,0.0
4235,0.0
4350,0.0
4471,0.0
2,3, 1, 3, 0, 5, 0.00,60.00,Saturday
11,67148392.5519437
47,24156278.99999996
71,4835078.999999999
346,19321199.999999968
993,18722069.99999997
1017,18722069.99999997
1497,1660729.849070178
1533,0.0
1557,0.0
2228,1591947.4962832714
2366,1243841.6725654065
4114,22678096.055660484
4126,8458341.339612136
4162,14199365.105798258
4222,416888.17650477177
4235,0.0
4350,0.0
4471,0.0
2,3, 1, 3, 0, 6, 0.00,60.00,Saturday
11,125618832.85140147
47,52754678.99999992
71,4835078.999999999
346,47919599.99999992
993,47320469.999999929
1017,47320469.999999929
1497,63387906.95360805
1533,0.0
1557,0.0
2228,796117.7317343009
2366,1042729.3821476365
4114,24747566.119667207
4126,10490501.918585619
4162,14199365.105798258
4222,62345177.57146042
4235,0.0
4350,0.0
4471,0.0
2,3, 1, 3, 0, 7, 0.00,60.00,Saturday
11,200593265.36784233
47,80361638.99999988
71,5971238.999999999
346,74390399.99999988
993,69320069.9999999
1017,69320069.9999999
1497,771463357.4461948
1533,28597212.921243654
1557,28597212.921243654
2228,1604349.4303442089
2366,1299260.5142057
4114,48689425.36401877
4126,19294396.520187435
4162,14199365.105798258
4222,741566884.0107454
4235,69607.87860112994
4350,0.0
4471,548173.6948784388
2,3, 1, 3, 0, 8, 0.00,60.00,Saturday
11,199404775.21892906
47,83678153.41219576
71,9287753.412195884
346,74390399.99999988
993,73192139.99999988
1017,73192139.99999988
1497,570379859.5699314
1533,28597212.921243654
1557,28597212.921243654
2228,3563364.5490844857
2366,1691833.5503919367
4114,38625373.64866945
4126,16519577.605455207
4162,14199365.105798258
4222,540090813.0982959
4235,58531.33516009707
4350,0.0
4471,287212.273819339
2,3, 1, 3, 0, 9, 0.00,60.00,Saturday
11,231779614.4079643
47,101356929.85666833
71,26966529.85666845
346,74390399.99999988
993,90883619.99999987
1017,90883619.99999987
1497,389207194.8000355
1533,285108.16507584266
1557,285108.16507584266
2228,4613231.38168779
2366,2021089.3729078896
4114,34647461.014530587
4126,16519577.605455207
4162,14199365.105798258
4222,386900997.26205179
4235,43656.78178881806
4350,0.0
4471,234715.3732888854
2,3, 1, 3, 0,10, 0.00,60.00,Saturday
11,269482435.8892299
47,118112971.2629288
71,43722571.26292892
346,74390399.99999988
993,114116039.99999988
1017,114116039.99999988
1497,222673712.734644
1533,285108.16507584266
1557,285108.16507584266
2228,4739358.302592484
2366,2080964.5109487475
4114,32288048.41031897
4126,16563717.761127035
4162,14199365.105798258
4222,220307640.0586194
4235,22270.51899931097
4350,0.0
4471,203747.394390468
2,3, 1, 3, 0,11, 0.00,60.00,Saturday
11,272392692.6869892
47,116762231.45411136
71,63820631.45411137
346,52941599.9999999
993,115899659.99999997
1017,115899659.99999997
1497,152437096.65384794
1533,513194.69713651677
1557,513194.69713651677
2228,7767600.647674993
2366,2824860.3542269857
4114,31752063.63488653
4126,16685652.630075945
4162,14199365.105798258
4222,149099041.60248447
4235,12445.482947118824
4350,0.0
4471,198691.46736933903
2,3, 1, 3, 0,12, 0.00,60.00,Saturday
11,275500267.7230958
47,116751241.66833547
71,63809641.66833548
346,52941599.9999999
993,115899659.99999997
1017,115899659.99999997
1497,103491783.45547945
1533,11952079.865633984
1557,11952079.865633984
2228,10149327.835901319
2366,3205938.4815224537
4114,31538334.24187097
4126,16959551.676270069
4162,14199365.105798258
4222,88333765.10832301
4235,5139.307125749735
4350,958216.7309743925
4471,198347.93888801128
2,3, 1, 3, 0,13, 0.00,60.00,Saturday
11,274851427.072607
47,113338400.29160284
71,60396800.29160286
346,52941599.9999999
993,114247259.99999997
1017,114247259.99999997
1497,75900064.68582645
1533,11952079.865633984
1557,11952079.865633984
2228,11444906.077712745
2366,3548403.1375636768
4114,32106593.115118259
4126,17182147.854020098
4162,14199365.105798258
4222,60399581.682628799
4235,1570.0677649289376
4350,3513871.4908261105
4471,198826.0295822309
2,3, 1, 3, 0,14, 0.00,60.00,Saturday
11,278624259.741133
47,113119083.47776437
71,60177483.477764379
346,52941599.9999999
993,114247259.99999997
1017,114247259.99999997
1497,51256180.862509358
1533,513194.69713651677
1557,513194.69713651677
2228,11179141.538876811
2366,3234865.084211129
4114,33130274.21555216
4126,17845144.591481709
4162,14199365.105798258
4222,47508121.08116171
4235,526.6488683598136
4350,6748941.4090216089
4471,199032.4510498679
2,3, 1, 3, 0,15, 0.00,60.00,Saturday
11,280396618.7360965
47,113072878.54193539
71,60131278.5419354
346,52941599.9999999
993,114247259.99999997
1017,114247259.99999997
1497,45890563.27407664
1533,427662.2476137639
1557,427662.2476137639
2228,9203322.838235807
2366,2978895.1703237185
4114,33808084.36522375
4126,18365754.3126105
4162,14199365.105798258
4222,42484005.85613916
4235,481.04242749123287
4350,9865550.40726541
4471,199041.5410087419
2,3, 1, 3, 0,16, 0.00,60.00,Saturday
11,278916534.9992132
47,113446516.95103574
71,60504916.95103576
346,52941599.9999999
993,114247259.99999997
1017,114247259.99999997
1497,42530772.91781467
1533,427662.2476137639
1557,427662.2476137639
2228,8456210.578806788
2366,2939057.7542127778
4114,33877702.93495121
4126,18647484.263429308
4162,14199365.105798258
4222,39164052.915988128
4235,453.9851091073903
4350,8689343.711625237
4471,199046.83768526113
2,3, 1, 3, 0,17, 0.00,60.00,Saturday
11,278011188.96731838
47,117794751.06260017
71,64853151.06260019
346,52941599.9999999
993,114247259.99999997
1017,114247259.99999997
1497,74928504.94965659
1533,29024875.168857416
1557,29024875.168857416
2228,9261697.27881352
2366,2937231.686410004
4114,33380539.401611784
4126,18781098.685772979
4162,14199365.105798258
4222,42966398.09438918
4235,447.42110770141167
4350,3127446.088699148
4471,199047.71448613093
2,3, 1, 3, 0,18, 0.00,60.00,Saturday
11,265624588.64095436
47,111937382.99999996
71,64017782.99999998
346,47919599.99999992
993,113145659.99999997
1017,113145659.99999997
1497,84749591.01562929
1533,28597212.921243654
1557,28597212.921243654
2228,8051719.0201236749
2366,2550913.1020632695
4114,32264536.681375185
4126,18060000.1198986
4162,14199365.105798258
4222,53601464.99232237
4235,570.734039357114
4350,25699.65770878326
4471,199019.54770749826
2,3, 1, 3, 0,19, 0.00,60.00,Saturday
11,293861258.8833729
47,128942549.99999987
71,38125349.999999988
346,90817199.99999984
993,125066699.99999988
1017,125066699.99999988
1497,119639180.35145271
1533,28597212.921243654
1557,28597212.921243654
2228,8921682.372590069
2366,2747636.9644413955
4114,30726284.212542077
4126,16526919.10674382
4162,14199365.105798258
4222,88294330.46576765
4235,5776.988085300854
4350,0.0
4471,198265.31015572779
2,3, 1, 3, 0,20, 0.00,60.00,Saturday
11,316218090.9954077
47,142745273.9999998
71,23329673.999999994
346,119415599.9999998
993,138176819.9999998
1017,138176819.9999998
1497,60458109.47549637
1533,0.0
1557,0.0
2228,6189448.108582653
2366,2200354.075950329
4114,28722217.80235543
4126,14487514.621749137
4162,14199365.105798258
4222,58257755.399546038
4235,10430.493495889297
4350,175647.13248199854
4471,198253.45849207563
2,3, 1, 3, 0,21, 0.00,60.00,Saturday
11,344934818.49155476
47,157044473.99999977
71,23329673.999999994
346,133714799.99999979
993,152476019.99999977
1017,152476019.99999977
1497,116403562.28154809
1533,0.0
1557,0.0
2228,5789978.4791774279
2366,2037011.8607166878
4114,28806763.639051729
4126,14487417.026481722
4162,14199365.105798258
4222,114366550.42083138
4235,20476.236204614786
4350,596265.3706625104
4471,200840.76645883118
2,3, 1, 3, 0,22, 0.00,60.00,Saturday
11,283325924.3217659
47,127949597.9999998
71,8533997.999999999
346,119415599.9999998
993,122688539.9999998
1017,122688539.9999998
1497,204207081.39276529
1533,0.0
1557,0.0
2228,3625976.4275777249
2366,1879687.7479339396
4114,28707344.89795148