Program Version,EnergyPlus, Version 9.0.1-bb7ca4f0da, YMD=2019.12.17 17:38
1,5,Environment Title[],Latitude[deg],Longitude[deg],Time Zone[],Elevation[m]
2,8,Day of Simulation[],Month[],Day of Month[],DST Indicator[1=yes 0=no],Hour[],StartMinute[],EndMinute[],DayType
3,5,Cumulative Day of Simulation[],Month[],Day of Month[],DST Indicator[1=yes 0=no],DayType  ! When Daily Meters Requested
4,2,Cumulative Days of Simulation[],Month[]  ! When Monthly Meters Requested
5,1,Cumulative Days of Simulation[] ! When Run Period Meters Requested
6,1,Calendar Year of Simulation[] ! When Annual Meters Requested
4480,1,Pumps:Electricity [J] !Hourly
993,1,InteriorEquipment:Electricity [J] !Hourly
47,1,InteriorLights:Electricity [J] !Hourly
11,1,Electricity:Facility [J] !Hourly
1497,1,Gas:Facility [J] !Hourly
4122,1,Fans:Electricity [J] !Hourly
4244,1,Heating:Electricity [J] !Hourly
4355,1,Cooling:Electricity [J] !Hourly
2228,1,WaterSystems:Electricity [J] !Hourly
1533,1,InteriorEquipment:Gas [J] !Hourly
1017,1,Receptacle:InteriorEquipment:Electricity [J] !Hourly
4231,1,Heating:Gas [J] !Hourly
2366,1,WaterSystems:Gas [J] !Hourly
1557,1,Receptacle:InteriorEquipment:Gas [J] !Hourly
71,1,ComplianceLtg:InteriorLights:Electricity [J] !Hourly
346,1,NonComplianceLtg:InteriorLights:Electricity [J] !Hourly
4134,1,General:Fans:Electricity [J] !Hourly
4171,1,ProcessMotors:Fans:Electricity [J] !Hourly
End of Data Dictionary
1,BURBANK-GLENDALE_722880_CZ2010,  34.20,-118.35,  -8.00, 226.00
2,1, 1, 1, 0, 1, 0.00,60.00,Holiday
11,55707848.83368215
47,24156278.99999996
71,4835078.999999999
346,19321199.999999968
993,18722069.99999997
1017,18722069.99999997
1497,1039908.7370372624
1533,0.0
1557,0.0
2228,796362.8700664515
2366,1039908.7370372624
4122,12033136.963615735
4134,8488078.333418435
4171,3545058.6301972989
4231,0.0
4244,0.0
4355,0.0
4480,0.0
2,1, 1, 1, 0, 2, 0.00,60.00,Holiday
11,56503960.70072064
47,24156278.99999996
71,4835078.999999999
346,19321199.999999968
993,18722069.99999997
1017,18722069.99999997
1497,1039689.6680204402
1533,0.0
1557,0.0
2228,1592474.7371049347
2366,1039689.6680204402
4122,12033136.963615735
4134,8488078.333418435
4171,3545058.6301972989
4231,0.0
4244,0.0
4355,0.0
4480,0.0
2,1, 1, 1, 0, 3, 0.00,60.00,Holiday
11,56504216.984503109
47,24156278.99999996
71,4835078.999999999
346,19321199.999999968
993,18722069.99999997
1017,18722069.99999997
1497,1134294.3794774225
1533,0.0
1557,0.0
2228,1592731.0208874024
2366,1134294.3794774225
4122,12033136.963615735
4134,8488078.333418435
4171,3545058.6301972989
4231,0.0
4244,0.0
4355,0.0
4480,0.0
2,1, 1, 1, 0, 4, 0.00,60.00,Holiday
11,55714988.31486206
47,24156278.99999996
71,4835078.999999999
346,19321199.999999968
993,18722069.99999997
1017,18722069.99999997
1497,1483187.4674376953
1533,0.0
1557,0.0
2228,790063.1845489326
2366,1199557.792095869
4122,12046576.130313158
4134,8488078.333418435
4171,3545058.6301972989
4231,283629.6753418261
4244,0.0
4355,0.0
4480,0.0
2,1, 1, 1, 0, 5, 0.00,60.00,Holiday
11,56736410.562000039
47,24156278.99999996
71,4835078.999999999
346,19321199.999999968
993,18722069.99999997
1017,18722069.99999997
1497,6764926.398720681
1533,0.0
1557,0.0
2228,1580422.2451828309
2366,1034644.4435540919
4122,12277639.316817239
4134,8488078.333418435
4171,3545058.6301972989
4231,5730281.9551665899
4244,0.0
4355,0.0
4480,0.0
2,1, 1, 1, 0, 6, 0.00,60.00,Holiday
11,118124897.18752727
47,52754678.99999992
71,4835078.999999999
346,47919599.99999992
993,47320469.999999929
1017,47320469.999999929
1497,87998786.56544936
1533,0.0
1557,0.0
2228,790284.8036635558
2366,1041349.8265635115
4122,17218978.059116924
4134,13245101.172225018
4171,3545058.6301972989
4231,86957436.73888584
4244,13758.214288795103
4355,0.0
4480,26727.110458038587
2,1, 1, 1, 0, 7, 0.00,60.00,Holiday
11,184378944.18498329
47,74203478.99999988
71,4835078.999999999
346,69368399.9999999
993,68769269.9999999
1017,68769269.9999999
1497,566015970.8245553
1533,28597212.921243654
1557,28597212.921243654
2228,1592513.6456434557
2366,1164485.0144515564
4122,39773951.58490543
4134,15455595.586889774
4171,3545058.6301972989
4231,536254272.88886019
4244,12477.044133557432
4355,0.0
4480,27252.910301002103
2,1, 1, 1, 0, 8, 0.00,60.00,Holiday
11,177136029.55300869
47,74188578.79603786
71,4820178.796037979
346,69368399.9999999
993,68769269.9999999
1017,68769269.9999999
1497,419676285.57434877
1533,28597212.921243654
1557,28597212.921243654
2228,2210780.6893861948
2366,1191672.5109332633
4122,31927130.03092967
4134,14198647.782472559
4171,3545058.6301972989
4231,389887400.14217188
4244,12639.70670853766
4355,0.0
4480,27630.329946419617
2,1, 1, 1, 0, 9, 0.00,60.00,Holiday
11,195819635.14434988
47,77785742.68990483
71,8417342.68990495
346,69368399.9999999
993,72641339.99999988
1017,72641339.99999988
1497,773357692.6113334
1533,0.0
1557,0.0
2228,1895615.7235176485
2366,1330750.2692698108
4122,41607245.777360398
4134,25883721.988005677
4171,3545058.6301972989
4231,772026942.3420634
4244,114613.08868140815
4355,0.0
4480,1775077.8648855894
2,1, 1, 1, 0,10, 0.00,60.00,Holiday
11,183670732.69085718
47,77527906.68663386
71,8159506.686633975
346,69368399.9999999
993,72641339.99999988
1017,72641339.99999988
1497,575013545.4877128
1533,0.0
1557,0.0
2228,3099965.240197084
2366,1343381.033388482
4122,29748371.86386756
4134,16615118.399665337
4171,3545058.6301972989
4231,573670164.4543244
4244,80841.21521131406
4355,0.0
4480,572307.6849473604
2,1, 1, 1, 0,11, 0.00,60.00,Holiday
11,181406840.30163277
47,75757758.64254619
71,27838158.64254624
346,47919599.99999992
993,74424959.99999996
1017,74424959.99999996
1497,392984267.0761662
1533,0.0
1557,0.0
2228,5107495.812778233
2366,2026386.5028294917
4122,25951173.634182306
4134,16465583.828262663
4171,3545058.6301972989
4231,390957880.5733367
4244,52833.77138087657
4355,0.0
4480,112618.44074512059
2,1, 1, 1, 0,12, 0.00,60.00,Holiday
11,178968006.18693728
47,75855009.93615307
71,27935409.93615312
346,47919599.99999992
993,74424959.99999996
1017,74424959.99999996
1497,274182232.8203665
1533,11438885.168497468
1557,11438885.168497468
2228,5871841.307207963
2366,2056667.2968435435
4122,22730424.006967546
4134,16465583.828262663
4171,3545058.6301972989
4231,260686680.3550255
4244,38475.73359387243
4355,0.0
4480,47295.20301485846
2,1, 1, 1, 0,13, 0.00,60.00,Holiday
11,203544508.30093137
47,85853695.37398972
71,37934095.373989749
346,47919599.99999992
993,89913239.99999997
1017,89913239.99999997
1497,118974257.9260911
1533,11438885.168497468
1557,11438885.168497468
2228,7194069.527819082
2366,2414376.9184478356
4122,20539767.97920756
4134,16465583.828262663
4171,3545058.6301972989
4231,105120995.8391458
4244,16489.56750440278
4355,0.0
4480,27245.852410591
2,1, 1, 1, 0,14, 0.00,60.00,Holiday
11,203038721.75622029
47,86722633.49332768
71,38803033.493327688
346,47919599.99999992
993,89913239.99999997
1017,89913239.99999997
1497,31927997.611905844
1533,0.0
1557,0.0
2228,6317971.4964001
2366,2430750.2829751318
4122,20019630.330135567
4134,16465583.828262663
4171,3545058.6301972989
4231,29497247.328930718
4244,5233.006519104377
4355,29186.807075855464
4480,30826.622761999497
2,1, 1, 1, 0,15, 0.00,60.00,Holiday
11,207421976.9575282
47,87653360.9771864
71,39733760.97718642
346,47919599.99999992
993,89913239.99999997
1017,89913239.99999997
1497,14100490.77577515
1533,0.0
1557,0.0
2228,6904001.391198336
2366,2089626.2278376446
4122,20010642.458459964
4134,16465583.828262663
4171,3545058.6301972989
4231,12010864.547937507
4244,2150.4345245866618
4355,2905853.944284487
4480,32727.75187445014
2,1, 1, 1, 0,16, 0.00,60.00,Holiday
11,208334268.24019278
47,88041263.01937317
71,40121663.01937319
346,47919599.99999992
993,89913239.99999997
1017,89913239.99999997
1497,12934572.538911729
1533,0.0
1557,0.0
2228,6104385.01571117
2366,2389751.3402002819
4122,20010642.458459964
4134,16465583.828262663
4171,3545058.6301972989
4231,10544821.198711448
4244,1887.952983800512
4355,4229954.047476847
4480,32895.74618782262
2,1, 1, 1, 0,17, 0.00,60.00,Holiday
11,208923855.0292182
47,89573286.60702279
71,41653686.607022818
346,47919599.99999992
993,89913239.99999997
1017,89913239.99999997
1497,40547750.531180027
1533,28597212.921243654
1557,28597212.921243654
2228,7266763.798444161
2366,2113604.782404606
4122,20010642.458459964
4134,16465583.828262663
4171,3545058.6301972989
4231,9836932.827531765
4244,1761.212099590007
4355,2125182.4805289015
4480,32978.4726627621
2,1, 1, 1, 0,18, 0.00,60.00,Holiday
11,179163820.06359724
47,78647111.99999994
71,30727511.99999999
346,47919599.99999992
993,74424959.99999996
1017,74424959.99999996
1497,70479836.62921834
1533,28597212.921243654
1557,28597212.921243654
2228,6044267.894473558
2366,2377198.090445961
4122,20010642.458459964
4134,16465583.828262663
4171,3545058.6301972989
4231,39505425.61752872
4244,7073.082109731417
4355,0.0
4480,29764.628554004532
2,1, 1, 1, 0,19, 0.00,60.00,Holiday
11,231650868.35234723
47,106749035.99999982
71,15931835.999999995
346,90817199.99999984
993,101834279.99999984
1017,101834279.99999984
1497,129045063.38874147
1533,28597212.921243654
1557,28597212.921243654
2228,4908952.835496476
2366,1701698.4470654855
4122,18114259.450396
4134,14569200.820198702
4171,3545058.6301972989
4231,98746152.02043233
4244,17679.5878121267
4355,0.0
4480,26660.478642813872
2,1, 1, 1, 0,20, 0.00,60.00,Holiday
11,260469863.71667425
47,124250678.9999998
71,4835078.999999999
346,119415599.9999998
993,118816469.99999982
1017,118816469.99999982
1497,2005699.169645389
1533,0.0
1557,0.0
2228,5369577.75305875
2366,2005699.169645389
4122,12033136.963615735
4134,8488078.333418435
4171,3545058.6301972989
4231,0.0
4244,0.0
4355,0.0
4480,0.0
2,1, 1, 1, 0,21, 0.00,60.00,Holiday
11,287271801.45160576
47,138549878.9999998
71,4835078.999999999
346,133714799.99999979
993,133115669.99999979
1017,133115669.99999979
1497,1668058.6589555334
1533,0.0
1557,0.0
2228,3573115.487990274
2366,1668058.6589555334
4122,12033136.963615735
4134,8488078.333418435
4171,3545058.6301972989
4231,0.0
4244,0.0
4355,0.0
4480,0.0
2,1, 1, 1, 0,22, 0.00,60.00,Holiday
11,258524889.57475565
47,124250678.9999998
71,4835078.999999999
346,119415599.9999998
993,118816469.99999982
1017,118816469.99999982
1497,1364836.3356413888
1533,0.0
1557,0.0
2228,3424603.6111401098
2366,1364836.3356413888
4122,12033136.963615735
4134,8488078.333418435
4171,3545058.6301972989
4231,0.0
4244,0.0
4355,0.0
4480,0.0
2,1, 1, 1, 0,23, 0.00,60.00,Holiday
11,199533699.86365626
47,95652278.99999984
71,4835078.999999999
346,90817199.99999984
993,90218069.99999985
1017,90218069.99999985
1497,1317990.6790953184
1533,0.0
1557,0.0
2228,1630213.9000407216
2366,1317990.6790953184
4122,12033136.963615735
4134,8488078.333418435
4171,3545058.6301972989
4231,0.0
4244,0.0
4355,0.0
4480,0.0
2,1, 1, 1, 0,24, 0.00,60.00,Holiday
11,113688563.06362678
47,52754678.99999992
71,4835078.999999999
346,47919599.99999992
993,47320469.999999929
1017,47320469.999999929
1497,1035072.6141516266
1533,0.0
1557,0.0
2228,1580277.1000110883
2366,1035072.6141516266
4122,12033136.963615735
4134,8488078.333418435
4171,3545058.6301972989
4231,0.0
4244,0.0
4355,0.0
4480,0.0
2,2, 1, 2, 0, 1, 0.00,60.00,Friday
11,55689729.187994468
47,24156278.99999996
71,4835078.999999999
346,19321199.999999968
993,18722069.99999997
1017,18722069.99999997
1497,1027743.4136682323
1533,0.0
1557,0.0
2228,778243.2243787578
2366,1027743.4136682323
4122,12033136.963615735
4134,8488078.333418435
4171,3545058.6301972989
4231,0.0
4244,0.0
4355,0.0
4480,0.0
2,2, 1, 2, 0, 2, 0.00,60.00,Friday
11,55695596.03383173
47,24156278.99999996
71,4835078.999999999
346,19321199.999999968
993,18722069.99999997
1017,18722069.99999997
1497,1032489.7649820373
1533,0.0
1557,0.0
2228,784110.0702160255
2366,1032489.7649820373
4122,12033136.963615735
4134,8488078.333418435
4171,3545058.6301972989
4231,0.0
4244,0.0
4355,0.0
4480,0.0
2,2, 1, 2, 0, 3, 0.00,60.00,Friday
11,56479666.13279931
47,24156278.99999996
71,4835078.999999999
346,19321199.999999968
993,18722069.99999997
1017,18722069.99999997
1497,1042010.5321106776
1533,0.0
1557,0.0
2228,1568180.1691836029
2366,1042010.5321106776
4122,12033136.963615735
4134,8488078.333418435
4171,3545058.6301972989
4231,0.0
4244,0.0
4355,0.0
4480,0.0
2,2, 1, 2, 0, 4, 0.00,60.00,Friday
11,55689701.305641818
47,24156278.99999996
71,4835078.999999999
346,19321199.999999968
993,18722069.99999997
1017,18722069.99999997
1497,1018497.6211300748
1533,0.0
1557,0.0
2228,778215.3420261137
2366,1018497.6211300748
4122,12033136.963615735
4134,8488078.333418435
4171,3545058.6301972989
4231,0.0
4244,0.0
4355,0.0
4480,0.0
2,2, 1, 2, 0, 5, 0.00,60.00,Friday
11,55689751.34272207
47,24156278.99999996
71,4835078.999999999
346,19321199.999999968
993,18722069.99999997
1017,18722069.99999997
1497,1027859.3098206865
1533,0.0
1557,0.0
2228,778265.379106374
2366,1027859.3098206865
4122,12033136.963615735
4134,8488078.333418435
4171,3545058.6301972989
4231,0.0
4244,0.0
4355,0.0
4480,0.0
2,2, 1, 2, 0, 6, 0.00,60.00,Friday
11,116894345.58214161
47,53890838.99999992
71,5971238.999999999
346,47919599.99999992
993,47871269.999999929
1017,47871269.999999929
1497,94485611.56777075
1533,0.0
1557,0.0
2228,778193.3477483474
2366,1201640.518101846
4122,14300019.62726457
4134,10754960.99706727
4171,3545058.6301972989
4231,93283971.0496689
4244,17447.397009783013
4355,0.0
4480,36576.21011894702
2,2, 1, 2, 0, 7, 0.00,60.00,Friday
11,182730389.25538538
47,80361638.99999988
71,5971238.999999999
346,74390399.99999988
993,69320069.9999999
1017,69320069.9999999
1497,529719306.8707679
1533,28597212.921243654
1557,28597212.921243654
2228,778227.6712568692
2366,1122130.2764722503
4122,31181470.38000756
4134,22817090.465499447
4171,3545058.6301972989
4231,499999963.673052
4244,86393.40062620088
4355,0.0
4480,1002588.8034948894
2,2, 1, 2, 0, 8, 0.00,60.00,Friday
11,204981698.6672552
47,95977533.23177418
71,21587133.23177432
346,74390399.99999988
993,83139479.99999988
1017,83139479.99999988
1497,369325174.27943047
1533,28882321.086319496
1557,28882321.086319496
2228,2547481.053437479
2366,1672372.2585133739
4122,23104781.683612519
4134,16501940.192393758
4171,3545058.6301972989
4231,338770480.9345976
4244,56699.99273444712
4355,0.0
4480,155722.70569654634
2,2, 1, 2, 0, 9, 0.00,60.00,Friday
11,266263797.17050559
47,125860367.00189926
71,51469967.001899387
346,74390399.99999988
993,112981499.99999987
1017,112981499.99999987
1497,257454989.06397475
1533,285108.16507584266
1557,285108.16507584266
2228,4549172.488321075
2366,2107878.5106956225
4122,22790578.83769791
4134,16465583.828262663
4171,3545058.6301972989
4231,255062002.38820327
4244,37351.158598845635
4355,0.0
4480,44827.68398846469
2,2, 1, 2, 0,10, 0.00,60.00,Friday
11,324452802.9385342
47,151141923.8220826
71,76751523.82208266
346,74390399.99999988
993,143958059.99999995
1017,143958059.99999995
1497,223382554.73544164
1533,285108.16507584266
1557,285108.16507584266
2228,5933391.951598812
2366,2869281.6779129088
4122,23361310.40894029
4134,16497249.141919405
4171,3545058.6301972989
4231,220228164.89245288
4244,26976.92714271786
4355,0.0
4480,31139.82876987174
2,2, 1, 2, 0,11, 0.00,60.00,Friday
11,284930747.9993106
47,129394751.99721805
71,76453151.99721805
346,52941599.9999999
993,122509259.99999996
1017,122509259.99999996
1497,273662181.8714087
1533,513194.69713651677
1557,513194.69713651677
2228,7580730.584970593
2366,3032432.741512034
4122,25385073.953214438
4134,16500913.618995199
4171,3545058.6301972989
4231,270116554.4327602
4244,28157.4954689772
4355,0.0
4480,32773.96843849588
2,2, 1, 2, 0,12, 0.00,60.00,Friday
11,288053232.60138627
47,129177946.71103645
71,76236346.71103648
346,52941599.9999999
993,122509259.99999996
1017,122509259.99999996
1497,280990561.68862816
1533,11952079.865633984
1557,11952079.865633984
2228,10983719.28084962
2366,3816658.0349076876
4122,25320873.070398798
4134,16677404.387944855
4171,3545058.6301972989
4231,265221823.7880864
4244,28245.62939972675
4355,0.0
4480,33187.909701759934
2,2, 1, 2, 0,13, 0.00,60.00,Friday
11,287655517.27854207
47,128773252.1174432
71,75831652.11744322
346,52941599.9999999
993,122509259.99999996
1017,122509259.99999996
1497,244207222.58773817
1533,11952079.865633984
1557,11952079.865633984
2228,11948842.016554278
2366,4119741.3739453686
4122,24369073.358446067
4134,16741045.858364765
4171,3545058.6301972989
4231,228135401.34815885
4244,25058.00959060237
4355,0.0
4480,30031.776507951556
2,2, 1, 2, 0,14, 0.00,60.00,Friday
11,285120518.141509
47,128124654.22739439
71,75183054.2273944
346,52941599.9999999
993,122509259.99999996
1017,122509259.99999996
1497,195623584.62191869
1533,513194.69713651677
1557,513194.69713651677
2228,10992692.011577243
2366,4274452.879917724
4122,23444294.77062954
4134,16782291.36082477
4171,3545058.6301972989
4231,190835937.04486449
4244,21885.683427398544
4355,0.0
4480,27731.448480443985
2,2, 1, 2, 0,15, 0.00,60.00,Friday
11,283298398.4287745
47,128440623.19704458
71,75499023.19704458
346,52941599.9999999
993,122509259.99999996
1017,122509259.99999996
1497,158946239.24567596
1533,427662.2476137639
1557,427662.2476137639
2228,9574648.613877595
2366,3243599.272467272
4122,22728429.544217297
4134,16856630.134962407
4171,3545058.6301972989
4231,155274977.7255949
4244,18591.355859259696
4355,0.0
4480,26845.717775840265
2,2, 1, 2, 0,16, 0.00,60.00,Friday
11,280407428.5765629
47,127362452.06459692
71,74420852.06459695
346,52941599.9999999
993,122509259.99999996
1017,122509259.99999996
1497,117983553.5965453
1533,427662.2476137639
1557,427662.2476137639
2228,8501906.607079465
2366,3057860.232078821
4122,21991512.342037176
4134,17270656.422386256
4171,3545058.6301972989
4231,114498031.11685272
4244,15620.894574998842
4355,0.0
4480,26676.668274341246
2,2, 1, 2, 0,17, 0.00,60.00,Friday
11,283165196.7689267
47,130202639.00150176
71,77261039.00150177
346,52941599.9999999
993,122509259.99999996
1017,122509259.99999996
1497,137654498.93440867
1533,29024875.168857416
1557,29024875.168857416
2228,8555035.11009848
2366,3521620.626016873
4122,21856757.655840205
4134,17320523.170114489
4171,3545058.6301972989
4231,105108003.13953436
4244,14715.577781195409
4355,0.0
4480,26789.423705173696
2,2, 1, 2, 0,18, 0.00,60.00,Friday
11,272941957.5056927
47,123776342.99999996
71,70834742.99999997
346,52941599.9999999
993,118102859.99999997
1017,118102859.99999997
1497,163666776.73690684
1533,29024875.168857416
1557,29024875.168857416
2228,9246240.803561084
2366,3038381.6351204479
4122,21771737.8528283
4134,16888772.742340227
4171,3545058.6301972989
4231,131603519.93292897
4244,18136.00796326951
4355,0.0
4480,26639.84134018174
2,2, 1, 2, 0,19, 0.00,60.00,Friday
11,306866738.5869729
47,143344268.99999986
71,47505068.99999999
346,95839199.99999984
993,135564839.99999989
1017,135564839.99999989
1497,158445543.27979029
1533,28597212.921243654
1557,28597212.921243654
2228,7658405.654977635
2366,2866752.340712694
4122,20249583.797663835
4134,16586527.998349803
4171,3545058.6301972989
4231,126981578.01783394
4244,22275.676091017114
4355,0.0
4480,27364.458240630207
2,2, 1, 2, 0,20, 0.00,60.00,Friday
11,362223780.54769268
47,171942668.99999974
71,47505068.99999999
346,124437599.9999998
993,164163239.99999974
1017,164163239.99999974
1497,123117934.36876643
1533,0.0
1557,0.0
2228,6046000.269233874
2366,2196687.2555099737
4122,20023019.295938225
4134,16472586.736057103
4171,3545058.6301972989
4231,120921247.11325646
4244,21629.353901935472
4355,0.0
4480,27222.628619008938
2,2, 1, 2, 0,21, 0.00,60.00,Friday
11,376535295.56750807
47,180270629.9999997
71,41533829.999999988
346,138736799.9999998
993,169616699.99999974
1017,169616699.99999974
1497,124515602.94144514
1533,0.0
1557,0.0
2228,6588179.584919496
2366,2419104.4787041989
4122,20010642.458459964
4134,16465583.828262663
4171,3545058.6301972989
4231,122096498.46274095
4244,21860.251989146527
4355,0.0
4480,27283.272139814322
2,2, 1, 2, 0,22, 0.00,60.00,Friday
11,293828793.9561049
47,143777915.9999998
71,19340315.999999998
346,124437599.9999998
993,132085079.9999998
1017,132085079.9999998
1497,46528377.60141795
1533,0.0
1557,0.0
2228,3999443.020618451
2366,1982846.272467983
4122,13929519.971679688
4134,10384461.34148239
4171,3545058.6301972989
4231,44545531.32894997
4244,7975.466553927637
4355,0.0
4480,28859.49725303985
2,2, 1, 2, 0,23, 0.00,60.00,Friday
11,204029345.01202149
47,96788438.99999984
71,5971238.999999999
346,90817199.99999984
993,90768869.99999985
1017,90768869.99999985
1497,46288342.70613184
1533,0.0
1557,0.0
2228,2505649.713574516
2366,1339798.0236245266
4122,13929519.971679688
4134,10384461.34148239
4171,3545058.6301972989
4231,44948544.68250732
4244,8047.622378006759
4355,0.0
4480,28818.70438946304
2,2, 1, 2, 0,24, 0.00,60.00,Friday
11,115646752.94304031
47,52754678.99999992
71,4835078.999999999
346,47919599.99999992
993,47320469.999999929
1017,47320469.999999929
1497,46562097.1566586
1533,0.0
1557,0.0
2228,1605177.501076694
2366,1046602.8247189191
4122,13929519.971679688
4134,10384461.34148239
4171,3545058.6301972989
4231,45515494.33193968
4244,8149.129483925379
4355,0.0
4480,28757.3408000326
2,3, 1, 3, 0, 1, 0.00,60.00,Saturday
11,57376830.1575061
47,24156278.99999996
71,4835078.999999999
346,19321199.999999968
993,18722069.99999997
1017,18722069.99999997
1497,1327037.2049833444
1533,0.0
1557,0.0
2228,2465344.193890403
2366,1327037.2049833444
4122,12033136.963615735
4134,8488078.333418435
4171,3545058.6301972989
4231,0.0
4244,0.0
4355,0.0
4480,0.0
2,3, 1, 3, 0, 2, 0.00,60.00,Saturday
11,56541926.53698972
47,24156278.99999996
71,4835078.999999999
346,19321199.999999968
993,18722069.99999997
1017,18722069.99999997
1497,1320911.7786145663
1533,0.0
1557,0.0
2228,1630440.5733740079
2366,1320911.7786145663
4122,12033136.963615735
4134,8488078.333418435
4171,3545058.6301972989
4231,0.0
4244,0.0
4355,0.0
4480,0.0
2,3, 1, 3, 0, 3, 0.00,60.00,Saturday
11,56516614.3241183
47,24156278.99999996
71,4835078.999999999
346,19321199.999999968
993,18722069.99999997
1017,18722069.99999997
1497,1046865.1485877876
1533,0.0
1557,0.0
2228,1605128.3605026049
2366,1046865.1485877876
4122,12033136.963615735
4134,8488078.333418435
4171,3545058.6301972989
4231,0.0
4244,0.0
4355,0.0
4480,0.0
2,3, 1, 3, 0, 4, 0.00,60.00,Saturday
11,56491937.5350949
47,24156278.99999996
71,4835078.999999999
346,19321199.999999968
993,18722069.99999997
1017,18722069.99999997
1497,1296419.3247801364
1533,0.0
1557,0.0
2228,1580451.5714792079
2366,1296419.3247801364
4122,12033136.963615735
4134,8488078.333418435
4171,3545058.6301972989
4231,0.0
4244,0.0
4355,0.0
4480,0.0
2,3, 1, 3, 0, 5, 0.00,60.00,Saturday
11,55701605.134866449
47,24156278.99999996
71,4835078.999999999
346,19321199.999999968
993,18722069.99999997
1017,18722069.99999997
1497,1036694.2816997594
1533,0.0
1557,0.0
2228,790119.1712507438
2366,1036694.2816997594
4122,12033136.963615735
4134,8488078.333418435
4171,3545058.6301972989
4231,0.0
4244,0.0
4355,0.0
4480,0.0
2,3, 1, 3, 0, 6, 0.00,60.00,Saturday
11,116610296.01605335
47,52754678.99999992
71,4835078.999999999
346,47919599.99999992
993,47320469.999999929
1017,47320469.999999929
1497,132213026.56391594
1533,0.0
1557,0.0
2228,1580316.6150641866
2366,1043392.9834901248
4122,14728983.114078157
4134,11170884.941699785
4171,3545058.6301972989
4231,131169633.58042582
4244,24504.443874553745
4355,133892.20401887
4480,67450.63901761429
2,3, 1, 3, 0, 7, 0.00,60.00,Saturday
11,191079886.76788209
47,80361638.99999988
71,5971238.999999999
346,74390399.99999988
993,69320069.9999999
1017,69320069.9999999
1497,781363609.5354507
1533,28597212.921243654
1557,28597212.921243654
2228,1592592.974087609
2366,1307670.8684178487
4122,38713007.46192054
4134,20357990.589900249
4171,3545058.6301972989
4231,751458725.7457892
4244,96034.211693566
4355,0.0
4480,996543.1201805031
2,3, 1, 3, 0, 8, 0.00,60.00,Saturday
11,187342893.09601579
47,83689396.5292522
71,9298996.529252323
346,74390399.99999988
993,73192139.99999988
1017,73192139.99999988
1497,507718941.1359701
1533,28597212.921243654
1557,28597212.921243654
2228,3542057.4957384045
2366,1685242.744352229
4122,26541528.8844056
4134,16468353.956632866
4171,3545058.6301972989
4231,477436485.4703742
4244,73864.84675228692
4355,0.0
4480,303905.33986727069
2,3, 1, 3, 0, 9, 0.00,60.00,Saturday
11,219913765.30270905
47,101420714.63412495
71,27030314.634125096
346,74390399.99999988
993,90883619.99999987
1017,90883619.99999987
1497,327148004.6179428
1533,285108.16507584266
1557,285108.16507584266
2228,4588147.718741393
2366,2024247.7282968604
4122,22866705.85554629
4134,16465583.828262663
4171,3545058.6301972989
4231,324838648.72457006
4244,54517.98253417493
4355,0.0
4480,100059.11176223954
2,3, 1, 3, 0,10, 0.00,60.00,Saturday
11,258649496.29646436
47,118144161.57096066
71,43753761.570960778
346,74390399.99999988
993,114116039.99999988
1017,114116039.99999988
1497,222719057.6280378
1533,285108.16507584266
1557,285108.16507584266
2228,4715423.809832465
2366,2084438.3431301306
4122,21595201.637825196
4134,16508328.78546257
4171,3545058.6301972989
4231,220349511.11983184
4244,35562.33424045774
4355,0.0
4480,43106.94360556438
2,3, 1, 3, 0,11, 0.00,60.00,Saturday
11,262577332.65706796
47,116729003.71220626
71,63787403.71220629
346,52941599.9999999
993,115899659.99999997
1017,115899659.99999997
1497,182770559.1095081
1533,513194.69713651677
1557,513194.69713651677
2228,8416308.720966187
2366,2897546.865908957
4122,21474161.634743394
4134,16577130.600317762
4171,3545058.6301972989
4231,179359817.5464626
4244,27053.571990863886
4355,0.0
4480,31145.017161254986
2,3, 1, 3, 0,12, 0.00,60.00,Saturday
11,263991146.72209663
47,116689395.46291931
71,63747795.46291933
346,52941599.9999999
993,115899659.99999997
1017,115899659.99999997
1497,145132848.31429474
1533,11952079.865633984
1557,11952079.865633984
2228,10273576.809959405
2366,3146306.413990951
4122,21020216.094320064
4134,16796177.579746847
4171,3545058.6301972989
4231,130034462.0346698
4244,20439.322060451057
4355,60638.66341800871
4480,27220.36941944592
2,3, 1, 3, 0,13, 0.00,60.00,Saturday
11,260264052.0285716
47,113400758.9089941
71,60459158.90899411
346,52941599.9999999
993,114247259.99999997
1017,114247259.99999997
1497,105423314.18335
1533,11952079.865633984
1557,11952079.865633984
2228,10848811.892113116
2366,3578399.091759381
4122,20975667.91531493
4134,17044854.85814903
4171,3545058.6301972989
4231,89892835.22595662
4244,15088.646348056402
4355,749549.5560256807
4480,26915.10977577483
2,3, 1, 3, 0,14, 0.00,60.00,Saturday
11,262379882.44910366
47,113473118.25458104
71,60531518.25458105
346,52941599.9999999
993,114247259.99999997
1017,114247259.99999997
1497,47145329.229303669
1533,513194.69713651677
1557,513194.69713651677
2228,10834295.500609367
2366,3563729.862920371
4122,21650840.082659466
4134,17647406.968177726
4171,3545058.6301972989
4231,43068404.66924678
4244,7555.02335116575
4355,2137324.287116865
4480,29489.300785832544
2,3, 1, 3, 0,15, 0.00,60.00,Saturday
11,261682454.3915002
47,113057626.56421721
71,60116026.56421723
346,52941599.9999999
993,114247259.99999997
1017,114247259.99999997
1497,34656133.23683545
1533,427662.2476137639
1557,427662.2476137639
2228,9458879.605861463
2366,2940758.779504647
4122,22377229.919870866
4134,18318570.96456767
4171,3545058.6301972989
4231,31287712.209717044
4244,5542.946180650386
4355,2505353.493361033
4480,30561.86200899058
2,3, 1, 3, 0,16, 0.00,60.00,Saturday
11,261533551.03341738
47,113358328.24261497
71,60416728.24261499
346,52941599.9999999
993,114247259.99999997
1017,114247259.99999997
1497,23207537.02294572
1533,427662.2476137639
1557,427662.2476137639
2228,9347604.296964666
2366,2728155.418025192
4122,22649777.950470535
4134,18723842.80062274
4171,3545058.6301972989
4231,20051719.357306765
4244,3588.8184658951638
4355,1895266.4651469829
4480,31725.25975439881
2,3, 1, 3, 0,17, 0.00,60.00,Saturday
11,262982985.65291927
47,117537902.28360252
71,64596302.28360254
346,52941599.9999999
993,114247259.99999997
1017,114247259.99999997
1497,61506262.522699709
1533,29024875.168857416
1557,29024875.168857416
2228,8368882.04625066
2366,2909193.3356545169
4122,22388842.323725765
4134,18734976.94792687
4171,3545058.6301972989
4231,29572194.018187778
4244,5146.224057096177
4355,404183.52730817146
4480,30769.247975091723
2,3, 1, 3, 0,18, 0.00,60.00,Saturday
11,255508469.66266946
47,111937382.99999996
71,64017782.99999998
346,47919599.99999992
993,113145659.99999997
1017,113145659.99999997
1497,110894935.71570513
1533,28597212.921243654
1557,28597212.921243654
2228,8860517.04641561
2366,2877661.1450104175
4122,21524124.943704674
4134,17852763.585819894
4171,3545058.6301972989
4231,79420061.64945106
4244,13530.022966775618
4355,0.0
4480,27254.64958243542
2,3, 1, 3, 0,19, 0.00,60.00,Saturday
11,282028142.9635061
47,128942549.99999987
71,38125349.999999988
346,90817199.99999984
993,125066699.99999988
1017,125066699.99999988
1497,159380615.65546943
1533,28597212.921243654
1557,28597212.921243654
2228,7934403.557579273
2366,2528502.129862995
4122,20033752.06924297
4134,16466556.515843157
4171,3545058.6301972989
4231,128254900.60436279
4244,22879.89291789911
4355,0.0
4480,27857.44376616062
2,3, 1, 3, 0,20, 0.00,60.00,Saturday
11,306177202.59237179
47,142745273.9999998
71,23329673.999999994
346,119415599.9999998
993,138176819.9999998
1017,138176819.9999998
1497,125765412.54728666
1533,0.0
1557,0.0
2228,7090056.68267961
2366,2419291.380824549
4122,18114259.450396
4134,14569200.820198702
4171,3545058.6301972989
4231,123346121.16646211
4244,22215.98772693386
4355,0.0
4480,28576.47156943372
2,3, 1, 3, 0,21, 0.00,60.00,Saturday
11,333458584.9941685
47,157044473.99999977
71,23329673.999999994
346,133714799.99999979
993,152476019.99999977
1017,152476019.99999977
1497,155967487.5460852
1533,0.0
1557,0.0
2228,5762538.132410128
2366,2040148.200932998
4122,18114259.450396
4134,14569200.820198702
4171,3545058.6301972989
4231,153927339.34515224
4244,28430.84303830699
4355,0.0
4480,32862.568324302236
2,3, 1, 3, 0,22, 0.00,60.00,Saturday
11,272451644.14359006
47,127949597.9999998
71,8533997.999999999
346,119415599.9999998
993,122688539.9999998