Program Version,EnergyPlus, Version 9.0.1-bb7ca4f0da, YMD=2019.12.17 18:35
1,5,Environment Title[],Latitude[deg],Longitude[deg],Time Zone[],Elevation[m]
2,8,Day of Simulation[],Month[],Day of Month[],DST Indicator[1=yes 0=no],Hour[],StartMinute[],EndMinute[],DayType
3,5,Cumulative Day of Simulation[],Month[],Day of Month[],DST Indicator[1=yes 0=no],DayType  ! When Daily Meters Requested
4,2,Cumulative Days of Simulation[],Month[]  ! When Monthly Meters Requested
5,1,Cumulative Days of Simulation[] ! When Run Period Meters Requested
6,1,Calendar Year of Simulation[] ! When Annual Meters Requested
993,1,InteriorEquipment:Electricity [J] !Hourly
4473,1,Pumps:Electricity [J] !Hourly
47,1,InteriorLights:Electricity [J] !Hourly
346,1,NonComplianceLtg:InteriorLights:Electricity [J] !Hourly
4210,1,Heating:Electricity [J] !Hourly
1497,1,Gas:Facility [J] !Hourly
11,1,Electricity:Facility [J] !Hourly
1017,1,Receptacle:InteriorEquipment:Electricity [J] !Hourly
4114,1,Fans:Electricity [J] !Hourly
4348,1,Cooling:Electricity [J] !Hourly
71,1,ComplianceLtg:InteriorLights:Electricity [J] !Hourly
2228,1,WaterSystems:Electricity [J] !Hourly
1533,1,InteriorEquipment:Gas [J] !Hourly
2366,1,WaterSystems:Gas [J] !Hourly
4236,1,Heating:Gas [J] !Hourly
1557,1,Receptacle:InteriorEquipment:Gas [J] !Hourly
4126,1,General:Fans:Electricity [J] !Hourly
4162,1,ProcessMotors:Fans:Electricity [J] !Hourly
End of Data Dictionary
1,OAKLAND_724930_CZ2010,  37.72,-122.22,  -8.00,   2.00
2,1, 1, 1, 0, 1, 0.00,60.00,Holiday
11,66341734.27394022
47,24156278.99999996
71,4835078.999999999
346,19321199.999999968
993,18722069.99999997
1017,18722069.99999997
1497,1042785.2739396659
1533,0.0
1557,0.0
2228,805678.8285298817
2366,1042785.2739396659
4114,22657706.445410395
4126,8458341.339612136
4162,14199365.105798256
4210,0.0
4236,0.0
4348,0.0
4473,0.0
2,1, 1, 1, 0, 2, 0.00,60.00,Holiday
11,67147204.39189855
47,24156278.99999996
71,4835078.999999999
346,19321199.999999968
993,18722069.99999997
1017,18722069.99999997
1497,1042773.4128829227
1533,0.0
1557,0.0
2228,1611148.9464882045
2366,1042773.4128829227
4114,22657706.445410395
4126,8458341.339612136
4162,14199365.105798256
4210,0.0
4236,0.0
4348,0.0
4473,0.0
2,1, 1, 1, 0, 3, 0.00,60.00,Holiday
11,67147231.88105083
47,24156278.99999996
71,4835078.999999999
346,19321199.999999968
993,18722069.99999997
1017,18722069.99999997
1497,1303444.6649411242
1533,0.0
1557,0.0
2228,1611176.4356404823
2366,1303444.6649411242
4114,22657706.445410395
4126,8458341.339612136
4162,14199365.105798256
4210,0.0
4236,0.0
4348,0.0
4473,0.0
2,1, 1, 1, 0, 4, 0.00,60.00,Holiday
11,66337636.691555779
47,24156278.99999996
71,4835078.999999999
346,19321199.999999968
993,18722069.99999997
1017,18722069.99999997
1497,1037337.7968038314
1533,0.0
1557,0.0
2228,801581.246145438
2366,1037337.7968038314
4114,22657706.445410395
4126,8458341.339612136
4162,14199365.105798256
4210,0.0
4236,0.0
4348,0.0
4473,0.0
2,1, 1, 1, 0, 5, 0.00,60.00,Holiday
11,67131379.48712453
47,24156278.99999996
71,4835078.999999999
346,19321199.999999968
993,18722069.99999997
1017,18722069.99999997
1497,1037576.5064945298
1533,0.0
1557,0.0
2228,1595324.0417141966
2366,1037576.5064945298
4114,22657706.445410395
4126,8458341.339612136
4162,14199365.105798256
4210,0.0
4236,0.0
4348,0.0
4473,0.0
2,1, 1, 1, 0, 6, 0.00,60.00,Holiday
11,136595528.77815757
47,52754678.99999992
71,4835078.999999999
346,47919599.99999992
993,47320469.999999929
1017,47320469.999999929
1497,1305585.3162663535
1533,0.0
1557,0.0
2228,1598013.9496881725
2366,1305585.3162663535
4114,24689867.024383874
4126,10490501.918585619
4162,14199365.105798256
4210,10232498.804085566
4236,0.0
4348,0.0
4473,0.0
2,1, 1, 1, 0, 7, 0.00,60.00,Holiday
11,188040280.13909788
47,74203478.99999988
71,4835078.999999999
346,69368399.9999999
993,68769269.9999999
1017,68769269.9999999
1497,245221344.28097195
1533,28597212.921243654
1557,28597212.921243654
2228,805518.7629196234
2366,1042765.5009077067
4114,34225807.41168389
4126,10490501.91858562
4162,14199365.105798256
4210,10036204.964494547
4236,215581365.85882063
4348,0.0
4473,0.0
2,1, 1, 1, 0, 8, 0.00,60.00,Holiday
11,188974475.92681907
47,74200681.63961274
71,4832281.639612861
346,69368399.9999999
993,68769269.9999999
1017,68769269.9999999
1497,139357873.2809067
1533,28597212.921243654
1557,28597212.921243654
2228,2478520.723904789
2366,1323250.9132361715
4114,33096002.75461313
4126,14077915.332480928
4162,14199365.105798256
4210,10330449.290678358
4236,109437409.4464269
4348,0.0
4473,99551.5180101166
2,1, 1, 1, 0, 9, 0.00,60.00,Holiday
11,205552361.11488206
47,77866802.64635952
71,8498402.646359645
346,69368399.9999999
993,72641339.99999988
1017,72641339.99999988
1497,427104044.73393198
1533,0.0
1557,0.0
2228,2521555.7671363216
2366,1336863.2708134433
4114,41492415.434040147
4126,23728231.416457125
4162,14199365.105798256
4210,10250070.146502182
4236,425767181.4631185
4348,0.0
4473,780177.1208439799
2,1, 1, 1, 0,10, 0.00,60.00,Holiday
11,197385844.47356219
47,77828288.76768735
71,8459888.76768747
346,69368399.9999999
993,72641339.99999988
1017,72641339.99999988
1497,333290246.7464459
1533,0.0
1557,0.0
2228,2565976.8855401475
2366,1350392.4385927055
4114,34035007.927684817
4126,16561730.161336434
4162,14199365.105798256
4210,10041476.493750547
4236,331939854.3078532
4348,0.0
4473,273754.39889940086
2,1, 1, 1, 0,11, 0.00,60.00,Holiday
11,203199581.90123538
47,78190933.56636949
71,30271333.566369535
346,47919599.99999992
993,74424959.99999996
1017,74424959.99999996
1497,262090415.63639815
1533,0.0
1557,0.0
2228,5915849.258006733
2366,2049062.8810424379
4114,34876764.221785929
4126,16519577.605455207
4162,14199365.105798256
4210,9581002.378111266
4236,260041352.75535573
4348,0.0
4473,210072.47696203626
2,1, 1, 1, 0,12, 0.00,60.00,Holiday
11,202531553.31193505
47,78111469.29785337
71,30191869.2978534
346,47919599.99999992
993,74424959.99999996
1017,74424959.99999996
1497,242358340.6226324
1533,11438885.168497468
1557,11438885.168497468
2228,6039404.64714182
2366,2380306.112302941
4114,34304797.88156639
4126,16519577.605455207
4162,14199365.105798256
4210,9446141.631352149
4236,228539149.34183199
4348,0.0
4473,204779.85402141617
2,1, 1, 1, 0,13, 0.00,60.00,Holiday
11,230506187.30292947
47,89028078.20844628
71,41108478.2084463
346,47919599.99999992
993,89913239.99999997
1017,89913239.99999997
1497,196395303.23661954
1533,11438885.168497468
1557,11438885.168497468
2228,7433390.490119414
2366,2423454.33282849
4114,34098758.97555516
4126,16519577.605455207
4162,14199365.105798256
4210,9832467.079527406
4236,182532963.73529355
4348,0.0
4473,200252.54928131807
2,1, 1, 1, 0,14, 0.00,60.00,Holiday
11,229889832.91679359
47,89125388.39309971
71,41205788.39309974
346,47919599.99999992
993,89913239.99999997
1017,89913239.99999997
1497,157633496.05366738
1533,0.0
1557,0.0
2228,7434080.697227413
2366,2461132.34006088
4114,33659494.548240859
4126,16519577.605455207
4162,14199365.105798256
4210,9558426.085541426
4236,155172363.71360649
4348,0.0
4473,199203.19268429318
2,1, 1, 1, 0,15, 0.00,60.00,Holiday
11,228915079.31486995
47,89177238.41523844
71,41257638.41523846
346,47919599.99999992
993,89913239.99999997
1017,89913239.99999997
1497,138969992.66556335
1533,0.0
1557,0.0
2228,6973281.616783651
2366,2150378.399735992
4114,33380778.172910055
4126,16519577.605455207
4162,14199365.105798256
4210,9271912.37673806
4236,136819614.26582734
4348,0.0
4473,198628.73319982328
2,1, 1, 1, 0,16, 0.00,60.00,Holiday
11,227858332.81926314
47,89077977.53485355
71,41158377.53485357
346,47919599.99999992
993,89913239.99999997
1017,89913239.99999997
1497,121754434.44048766
1533,0.0
1557,0.0
2228,6604691.102486566
2366,2423530.377370266
4114,32751416.80895509
4126,16519577.605455207
4162,14199365.105798256
4210,9312470.232218694
4236,119330904.06311739
4348,0.0
4473,198537.14074932453
2,1, 1, 1, 0,17, 0.00,60.00,Holiday
11,229513737.1575536
47,89630651.41919849
71,41711051.4191985
346,47919599.99999992
993,89913239.99999997
1017,89913239.99999997
1497,154346219.94554503
1533,28597212.921243654
1557,28597212.921243654
2228,7515357.95164297
2366,2451308.592662155
4114,32638963.45725787
4126,16519577.605455207
4162,14199365.105798256
4210,9616728.546549634
4236,123297698.4316392
4348,0.0
4473,198795.7829047446
2,1, 1, 1, 0,18, 0.00,60.00,Holiday
11,203692394.00966419
47,78647111.99999994
71,30727511.99999999
346,47919599.99999992
993,74424959.99999996
1017,74424959.99999996
1497,208838725.16102556
1533,28597212.921243654
1557,28597212.921243654
2228,7273629.03984012
2366,2204309.532677413
4114,33218772.465789215
4126,16519577.605455207
4162,14199365.105798256
4210,9926659.637408466
4236,178037202.7071045
4348,0.0
4473,201260.86662654446
2,1, 1, 1, 0,19, 0.00,60.00,Holiday
11,242610994.29174377
47,106749035.99999982
71,15931835.999999995
346,90817199.99999984
993,101834279.99999984
1017,101834279.99999984
1497,206793070.932199
1533,28597212.921243654
1557,28597212.921243654
2228,4737070.868896714
2366,1912177.637202369
4114,29053168.893970439
4126,14487417.026481722
4162,14199365.105798256
4210,30078.915089455895
4236,176283680.37375299
4348,0.0
4473,207359.61378739569
2,1, 1, 1, 0,20, 0.00,60.00,Holiday
11,271556190.47882476
47,124250678.9999998
71,4835078.999999999
346,119415599.9999998
993,118816469.99999982
1017,118816469.99999982
1497,2762983.591590522
1533,0.0
1557,0.0
2228,5798761.0305668129
2366,2026574.2457055287
4114,22690280.448258219
4126,8458341.339612136
4162,14199365.105798256
4210,0.0
4236,736409.3458849932
4348,0.0
4473,0.0
2,1, 1, 1, 0,21, 0.00,60.00,Holiday
11,298346978.246257
47,138549878.9999998
71,4835078.999999999
346,133714799.99999979
993,133115669.99999979
1017,133115669.99999979
1497,2214759.2205426015
1533,0.0
1557,0.0
2228,4000115.6652647985
2366,1681066.2828514933
4114,22681313.580992469
4126,8458341.339612136
4162,14199365.105798256
4210,0.0
4236,533692.9376911082
4348,0.0
4473,0.0
2,1, 1, 1, 0,22, 0.00,60.00,Holiday
11,268915474.2626478
47,124250678.9999998
71,4835078.999999999
346,119415599.9999998
993,118816469.99999982
1017,118816469.99999982
1497,2653587.583807512
1533,0.0
1557,0.0
2228,3146165.6626469215
2366,1648623.0221095787
4114,22702159.60000116
4126,8458341.339612136
4162,14199365.105798256
4210,0.0
4236,1004964.5616979335
4348,0.0
4473,0.0
2,1, 1, 1, 0,23, 0.00,60.00,Holiday
11,211006507.30805788
47,95652278.99999984
71,4835078.999999999
346,90817199.99999984
993,90218069.99999985
1017,90218069.99999985
1497,1323208.740785569
1533,0.0
1557,0.0
2228,2478451.862647753
2366,1323208.740785569
4114,22657706.445410395
4126,8458341.339612136
4162,14199365.105798256
4210,0.0
4236,0.0
4348,0.0
4473,0.0
2,1, 1, 1, 0,24, 0.00,60.00,Holiday
11,123531797.93460286
47,52754678.99999992
71,4835078.999999999
346,47919599.99999992
993,47320469.999999929
1017,47320469.999999929
1497,1037753.2646133171
1533,0.0
1557,0.0
2228,798942.4891925067
2366,1037753.2646133171
4114,22657706.445410395
4126,8458341.339612136
4162,14199365.105798256
4210,0.0
4236,0.0
4348,0.0
4473,0.0
2,2, 1, 2, 0, 1, 0.00,60.00,Friday
11,66322096.69481967
47,24156278.99999996
71,4835078.999999999
346,19321199.999999968
993,18722069.99999997
1017,18722069.99999997
1497,1029514.1153793663
1533,0.0
1557,0.0
2228,786041.2494093288
2366,1029514.1153793663
4114,22657706.445410395
4126,8458341.339612136
4162,14199365.105798256
4210,0.0
4236,0.0
4348,0.0
4473,0.0
2,2, 1, 2, 0, 2, 0.00,60.00,Friday
11,67120928.87694101
47,24156278.99999996
71,4835078.999999999
346,19321199.999999968
993,18722069.99999997
1017,18722069.99999997
1497,1034716.3685519006
1533,0.0
1557,0.0
2228,1584873.4315306713
2366,1034716.3685519006
4114,22657706.445410395
4126,8458341.339612136
4162,14199365.105798256
4210,0.0
4236,0.0
4348,0.0
4473,0.0
2,2, 1, 2, 0, 3, 0.00,60.00,Friday
11,66396249.9234941
47,24156278.99999996
71,4835078.999999999
346,19321199.999999968
993,18722069.99999997
1017,18722069.99999997
1497,2566916.452447032
1533,0.0
1557,0.0
2228,792426.7732753013
2366,1034873.8183564246
4114,22725474.15021886
4126,8458341.339612136
4162,14199365.105798256
4210,0.0
4236,1532042.6340906076
4348,0.0
4473,0.0
2,2, 1, 2, 0, 4, 0.00,60.00,Friday
11,66760533.59834364
47,24156278.99999996
71,4835078.999999999
346,19321199.999999968
993,18722069.99999997
1017,18722069.99999997
1497,10944008.01687111
1533,0.0
1557,0.0
2228,785941.1521943247
2366,1029891.9675444979
4114,23096243.446149377
4126,8458341.339612136
4162,14199365.105798256
4210,0.0
4236,9914116.049326612
4348,0.0
4473,0.0
2,2, 1, 2, 0, 5, 0.00,60.00,Friday
11,67432869.01361703
47,24156278.99999996
71,4835078.999999999
346,19321199.999999968
993,18722069.99999997
1017,18722069.99999997
1497,26142563.953125586
1533,0.0
1557,0.0
2228,785990.666462039
2366,1029912.5876419705
4114,23768529.34715503
4126,8458341.339612136
4162,14199365.105798256
4210,0.0
4236,25112651.36548361
4348,0.0
4473,0.0
2,2, 1, 2, 0, 6, 0.00,60.00,Friday
11,150383883.2522889
47,53890838.99999992
71,5971238.999999999
346,47919599.99999992
993,47871269.999999929
1017,47871269.999999929
1497,21205298.450132967
1533,0.0
1557,0.0
2228,786095.812602319
2366,1295227.6252070554
4114,25570560.98252875
4126,10490501.918585619
4162,14199365.105798256
4210,22265117.457157915
4236,19910070.824925908
4348,0.0
4473,0.0
2,2, 1, 2, 0, 7, 0.00,60.00,Friday
11,233086931.66838283
47,80361638.99999988
71,5971238.999999999
346,74390399.99999988
993,69320069.9999999
1017,69320069.9999999
1497,920375611.6118584
1533,28597212.921243654
1557,28597212.921243654
2228,786127.6941604535
2366,1034058.9925199924
4114,59263953.92720152
4126,23680768.719934655
4162,14199365.105798256
4210,22347461.731129059
4236,890744339.6980949
4348,0.0
4473,1007679.3158919758
2,2, 1, 2, 0, 8, 0.00,60.00,Friday
11,247308105.74930264
47,95991824.84483743
71,21601424.84483755
346,74390399.99999988
993,83139479.99999988
1017,83139479.99999988
1497,612702898.7521713
1533,28882321.086319496
1557,28882321.086319496
2228,3453080.045946968
2366,1686204.074741528
4114,42713737.01786502
4126,16543506.017830484
4162,14199365.105798256
4210,21695399.05563065
4236,582134373.5911102
4348,0.0
4473,314584.7850226147
2,2, 1, 2, 0, 9, 0.00,60.00,Friday
11,299361149.33767756
47,125955268.2962756
71,51564868.29627574
346,74390399.99999988
993,112981499.99999987
1017,112981499.99999987
1497,429999877.6082233
1533,285108.16507584266
1557,285108.16507584266
2228,4650331.671268225
2366,2444634.9885400685
4114,39725857.280057918
4126,16519577.605455207
4162,14199365.105798256
4210,15819624.645457568
4236,427270134.45460739
4348,0.0
4473,228567.4446183038
2,2, 1, 2, 0,10, 0.00,60.00,Friday
11,351962600.043944
47,151040057.36297716
71,76649657.36297722
346,74390399.99999988
993,143958059.99999995
1017,143958059.99999995
1497,322676301.9937332
1533,285108.16507584266
1557,285108.16507584266
2228,6109395.376714115
2366,2890390.8688199727
4114,38303209.68479273
4126,16563732.593869904
4162,14199365.105798256
4210,12343882.819665824
4236,319500802.95983746
4348,0.0
4473,207994.79979433184
2,2, 1, 2, 0,11, 0.00,60.00,Friday
11,311276413.199877
47,128556240.13946328
71,75614640.1394633
346,52941599.9999999
993,122509259.99999996
1017,122509259.99999996
1497,330864513.88056597
1533,513194.69713651677
1557,513194.69713651677
2228,8708161.7769089
2366,3146870.1495667689
4114,38956736.526461947
4126,16602470.507937476
4162,14199365.105798256
4210,12339128.85556826
4236,327204449.03386268
4348,0.0
4473,206885.90147469557
2,2, 1, 2, 0,12, 0.00,60.00,Friday
11,313029522.2770096
47,128793223.83394258
71,75851623.8339426
346,52941599.9999999
993,122509259.99999996
1017,122509259.99999996
1497,308078066.6932949
1533,11952079.865633984
1557,11952079.865633984
2228,11415480.069036995
2366,3963330.5722612359
4114,38323161.981913197
4126,16831250.291688198
4162,14199365.105798256
4210,11784362.713360716
4236,292162656.2553997
4348,0.0
4473,204033.67875622697
2,2, 1, 2, 0,13, 0.00,60.00,Friday
11,308759307.021913
47,126721119.07395482
71,73779519.07395485
346,52941599.9999999
993,122509259.99999996
1017,122509259.99999996
1497,236165216.67732353
1533,11952079.865633984
1557,11952079.865633984
2228,12178232.32980883
2366,4627852.078116609
4114,36156247.75891781
4126,16893397.885056657
4162,14199365.105798256
4210,10993482.20026445
4236,219585284.73357297
4348,0.0
4473,200965.65896717079
2,2, 1, 2, 0,14, 0.00,60.00,Friday
11,308031929.5933932
47,127162134.67623699
71,74220534.67623702
346,52941599.9999999
993,122509259.99999996
1017,122509259.99999996
1497,180474263.11224494
1533,513194.69713651677
1557,513194.69713651677
2228,12937229.25108362
2366,4250933.132836676
4114,34801435.023119408
4126,16938508.90366613
4162,14199365.105798256
4210,10422138.680616657
4236,175710135.2822717
4348,0.0
4473,199731.96233664876
2,2, 1, 2, 0,15, 0.00,60.00,Friday
11,304235078.4690367
47,127579498.25536455
71,74637898.25536455
346,52941599.9999999
993,122509259.99999996
1017,122509259.99999996
1497,166423231.90991736
1533,427662.2476137639
1557,427662.2476137639
2228,10051669.531035213
2366,3616814.090723293
4114,34286857.937866728
4126,17018611.36274346
4162,14199365.105798256
4210,9608097.916374168
4236,162378755.5715803
4348,0.0
4473,199694.82839610338
2,2, 1, 2, 0,16, 0.00,60.00,Friday
11,298291161.54192128
47,125096124.34941271
71,72154524.34941274
346,52941599.9999999
993,122509259.99999996
1017,122509259.99999996
1497,125274765.49613072
1533,427662.2476137639
1557,427662.2476137639
2228,8601874.283012666
2366,3136961.703678275
4114,33105037.349799776
4126,17369318.27021756
4162,14199365.105798256
4210,8779547.838123136
4236,121710141.54483868
4348,0.0
4473,199317.72157304939
2,2, 1, 2, 0,17, 0.00,60.00,Friday
11,302615758.4169826
47,129242765.54643898
71,76301165.546439
346,52941599.9999999
993,122509259.99999996
1017,122509259.99999996
1497,154330504.27661319
1533,29024875.168857416
1557,29024875.168857416
2228,9206277.150376536
2366,3625695.1494077236
4114,32906593.725761609
4126,17294577.301299037
4162,14199365.105798256
4210,8551408.39662784
4236,121679933.95834804
4348,0.0
4473,199453.59777768792
2,2, 1, 2, 0,18, 0.00,60.00,Friday
11,296474957.5818784
47,123776342.99999996
71,70834742.99999997
346,52941599.9999999
993,118102859.99999997
1017,118102859.99999997
1497,186295455.88957418
1533,29024875.168857416
1557,29024875.168857416
2228,9670526.853713464
2366,3157081.004419399
4114,33618480.91240922
4126,16969014.81944822
4162,14199365.105798256
4210,11106604.642212624
4236,154113499.71629737
4348,0.0
4473,200142.17354328049
2,2, 1, 2, 0,19, 0.00,60.00,Friday
11,330601927.45763149
47,143344268.99999986
71,47505068.99999999
346,95839199.99999984
993,135564839.99999989
1017,135564839.99999989
1497,161748993.3423475
1533,28597212.921243654
1557,28597212.921243654
2228,8574783.06400899
2366,2934062.0485956978
4114,31506069.26124177
4126,16678145.497585049
4162,14199365.105798256
4210,11409992.328742419
4236,130217718.37250814
4348,0.0
4473,201973.80363860547
2,2, 1, 2, 0,20, 0.00,60.00,Friday
11,385505690.25505736
47,171942668.99999974
71,47505068.99999999
346,124437599.9999998
993,164163239.99999974
1017,164163239.99999974
1497,123766013.11709383
1533,0.0
1557,0.0
2228,6712715.705370062
2366,2478399.2949036697
4114,30898262.268846048
4126,16549339.577321733
4162,14199365.105798256
4210,11586445.567269862
4236,121287613.82219017
4348,0.0
4473,202357.7135717054
2,2, 1, 2, 0,21, 0.00,60.00,Friday
11,400145687.1342784
47,180270629.9999997
71,41533829.999999988
346,138736799.9999998
993,169616699.99999974
1017,169616699.99999974
1497,138962449.71912349
1533,0.0
1557,0.0
2228,7125207.486453163
2366,2491590.5650472624
4114,30844452.69777792
4126,16519577.605455207
4162,14199365.105798256
4210,12083981.201709094
4236,136470859.15407623
4348,0.0
4473,204715.74833868794
2,2, 1, 2, 0,22, 0.00,60.00,Friday
11,318251401.6326566
47,143777915.9999998
71,19340315.999999998
346,124437599.9999998
993,132085079.9999998
1017,132085079.9999998
1497,8322034.038677482
1533,0.0
1557,0.0
2228,4714017.845608509
2366,1987925.4753383715
4114,24970047.563675804
4126,10490501.918585619
4162,14199365.105798256
4210,12704340.22337261
4236,6334108.5633391099
4348,0.0
4473,0.0
2,2, 1, 2, 0,23, 0.00,60.00,Friday
11,230156035.20356075
47,96788438.99999984
71,5971238.999999999
346,90817199.99999984
993,90768869.99999985
1017,90768869.99999985
1497,1346676.907196789
1533,0.0
1557,0.0
2228,2543485.63518585
2366,1346676.907196789
4114,24689867.024383874
4126,10490501.918585619
4162,14199365.105798256
4210,15365373.543991276
4236,0.0
4348,0.0
4473,0.0
2,2, 1, 2, 0,24, 0.00,60.00,Friday
11,140767774.34939773
47,52754678.99999992
71,4835078.999999999
346,47919599.99999992
993,47320469.999999929
1017,47320469.999999929
1497,1312843.1220721389
1533,0.0
1557,0.0
2228,1624765.9443651539
2366,1312843.1220721389
4114,24689867.024383874
4126,10490501.918585619
4162,14199365.105798256
4210,14377992.380648723
4236,0.0
4348,0.0
4473,0.0
2,3, 1, 3, 0, 1, 0.00,60.00,Saturday
11,67202927.80822566
47,24156278.99999996
71,4835078.999999999
346,19321199.999999968
993,18722069.99999997
1017,18722069.99999997
1497,1332807.5868162849
1533,0.0
1557,0.0
2228,1666872.3628153313
2366,1332807.5868162849
4114,22657706.445410395
4126,8458341.339612136
4162,14199365.105798256
4210,0.0
4236,0.0
4348,0.0
4473,0.0
2,3, 1, 3, 0, 2, 0.00,60.00,Saturday
11,68034933.45852745
47,24156278.99999996
71,4835078.999999999
346,19321199.999999968
993,18722069.99999997
1017,18722069.99999997
1497,1783948.2110075297
1533,0.0
1557,0.0
2228,2478625.5526394376
2366,1326095.326221054
4114,22677958.90588806
4126,8458341.339612136
4162,14199365.105798256
4210,0.0
4236,457852.8847864754
4348,0.0
4473,0.0
2,3, 1, 3, 0, 3, 0.00,60.00,Saturday
11,67413592.70320805
47,24156278.99999996
71,4835078.999999999
346,19321199.999999968
993,18722069.99999997
1017,18722069.99999997
1497,6761746.109070848
1533,0.0
1557,0.0
2228,1624893.8892023946
2366,1050172.3693267978
4114,22910349.8140057
4126,8458341.339612136
4162,14199365.105798256
4210,0.0
4236,5711573.73974405
4348,0.0
4473,0.0
2,3, 1, 3, 0, 4, 0.00,60.00,Saturday
11,67309503.12715516
47,24156278.99999996
71,4835078.999999999
346,19321199.999999968
993,18722069.99999997
1017,18722069.99999997
1497,23330301.292452627
1533,0.0
1557,0.0
2228,798959.6453451132
2366,1299810.7987942729
4114,23632194.48181009
4126,8458341.339612136
4162,14199365.105798256
4210,0.0
4236,22030490.493658354
4348,0.0
4473,0.0
2,3, 1, 3, 0, 5, 0.00,60.00,Saturday
11,69678794.57842779
47,24156278.99999996
71,4835078.999999999
346,19321199.999999968
993,18722069.99999997
1017,18722069.99999997
1497,58566514.22418159
1533,0.0
1557,0.0
2228,1598131.236640555
2366,1039931.2552387955
4114,25202314.341787276
4126,8458341.339612136
4162,14199365.105798256
4210,0.0
4236,57526582.968942809
4348,0.0
4473,0.0
2,3, 1, 3, 0, 6, 0.00,60.00,Saturday
11,178688845.4007517
47,52754678.99999992
71,4835078.999999999
346,47919599.99999992
993,47320469.999999929
1017,47320469.999999929
1497,66405796.26070282
1533,0.0
1557,0.0
2228,1598049.4559619879
2366,1127161.503697148
4114,27577376.046509558
4126,10490501.918585619
4162,14199365.105798256
4210,49438270.89828022
4236,65278634.75700568
4348,0.0
4473,0.0
2,3, 1, 3, 0, 7, 0.00,60.00,Saturday
11,266844864.50342519
47,80361638.99999988
71,5971238.999999999
346,74390399.99999988
993,69320069.9999999
1017,69320069.9999999
1497,1144463677.422222
1533,28597212.921243654
1557,28597212.921243654
2228,805593.2069083025
2366,1231420.4556029407
4114,65879089.26948446
4126,22505578.541586959
4162,14199365.105798256
4210,49469451.70536323
4236,1114635044.0453754
4348,0.0
4473,1009021.3216694207
2,3, 1, 3, 0, 8, 0.00,60.00,Saturday
11,260147887.89305014
47,83874800.51913324
71,9484400.519133356
346,74390399.99999988
993,73192139.99999988
1017,73192139.99999988
1497,820858955.1346734
1533,28597212.921243654
1557,28597212.921243654
2228,4516601.081848848
2366,1821815.7004264484
4114,48641039.57447041
4126,16525367.930572486
4162,14199365.105798256
4210,49420377.70617655
4236,790439926.5130032
4348,0.0
4473,502929.01142119246
2,3, 1, 3, 0, 9, 0.00,60.00,Saturday
11,289572961.78603628
47,100695628.80544544
71,26305228.805445576
346,74390399.99999988
993,90883619.99999987
1017,90883619.99999987
1497,633196588.3667529
1533,285108.16507584266
1557,285108.16507584266
2228,4692587.179218682
2366,2146680.577283424
4114,43429179.2593227
4126,16519577.605455207
4162,14199365.105798256
4210,49465995.40102553
4236,630764799.6243937
4348,0.0
4473,405951.1410240476
2,3, 1, 3, 0,10, 0.00,60.00,Saturday
11,324215766.6977045
47,117985586.74928984
71,43595186.749289978
346,74390399.99999988
993,114116039.99999988
1017,114116039.99999988
1497,422886949.35753586
1533,285108.16507584266
1557,285108.16507584266
2228,5801094.098877568
2366,2182507.6448894508
4114,38251491.68265055
4126,16563812.461881446
4162,14199365.105798256
4210,47782760.8229825
4236,420419333.54757049
4348,0.0
4473,278793.3439041471
2,3, 1, 3, 0,11, 0.00,60.00,Saturday
11,298217213.5182395
47,116672110.49469422
71,63730510.494694229
346,52941599.9999999
993,115899659.99999997
1017,115899659.99999997
1497,292656114.01899567
1533,513194.69713651677
1557,513194.69713651677
2228,7962218.949102865
2366,2957549.6757464499
4114,35766319.3058119
4126,16653497.037327789
4162,14199365.105798256
4210,21696725.164164168
4236,289185369.64611276
4348,0.0
4473,220179.60446644706
2,3, 1, 3, 0,12, 0.00,60.00,Saturday
11,291667370.214536
47,116653658.7138813
71,63712058.713881317
346,52941599.9999999
993,115899659.99999997
1017,115899659.99999997
1497,229753877.91598694
1533,11952079.865633984
1557,11952079.865633984
2228,10913784.454320632
2366,3596954.1787551857
4114,34153340.975155439
4126,16902937.625468218
4162,14199365.105798256
4210,13838934.766360486
4236,214204843.87159778
4348,0.0
4473,207991.3048182563
2,3, 1, 3, 0,13, 0.00,60.00,Saturday
11,284939695.63000985
47,113208338.494405
71,60266738.49440501
346,52941599.9999999
993,114247259.99999997
1017,114247259.99999997
1497,180930874.25926245
1533,11952079.865633984
1557,11952079.865633984
2228,12454366.860131573
2366,3608301.2377498087
4114,33031026.30371122
4126,16976842.679717199
4162,14199365.105798256
4210,11795144.858475918
4236,165370493.15587867
4348,0.0
4473,203559.11328621137
2,3, 1, 3, 0,14, 0.00,60.00,Saturday
11,283317432.4434917
47,113198492.80807401
71,60256892.80807403
346,52941599.9999999
993,114247259.99999997
1017,114247259.99999997
1497,147602586.85912804
1533,513194.69713651677
1557,513194.69713651677
2228,11540043.050642863
2366,3608089.282012794
4114,32501020.381660765
4126,17033458.484671084
4162,14199365.105798256
4210,11508780.66277263
4236,143481302.87997873
4348,119669.08530453754
4473,202166.45503706864
2,3, 1, 3, 0,15, 0.00,60.00,Saturday
11,281968740.33558347
47,113195546.16404762
71,60253946.16404764
346,52941599.9999999
993,114247259.99999997
1017,114247259.99999997
1497,129973267.45395069
1533,427662.2476137639
1557,427662.2476137639
2228,9914392.61672724
2366,3223066.3037089065
4114,32484177.04865175
4126,17314244.783189946
4162,14199365.105798256
4210,11454059.28517668
4236,126322538.90262802
4348,472166.86385008526
4473,201138.35713018498
2,3, 1, 3, 0,16, 0.00,60.00,Saturday
11,281972189.38934448
47,113480191.61679814
71,60538591.61679816
346,52941599.9999999
993,114247259.99999997
1017,114247259.99999997
1497,106232253.99451705
1533,427662.2476137639
1557,427662.2476137639
2228,9787339.865467828
2366,3013515.1577498076
4114,32679316.341691436
4126,17663325.67698026
4162,14199365.105798256
4210,10999347.301944897
4236,102791076.58915349
4348,579237.6282685838
4473,199496.63517366519
2,3, 1, 3, 0,17, 0.00,60.00,Saturday
11,286650718.0413557
47,118508549.98495214
71,65566949.98495216
346,52941599.9999999
993,114247259.99999997
1017,114247259.99999997
1497,140077585.85370163
1533,29024875.168857416
1557,29024875.168857416
2228,9664459.136369
2366,3011018.5940212237
4114,32888995.020300896
4126,17813279.962819794
4162,14199365.105798256
4210,11113295.435230835
4236,108041692.090823
4348,28682.74829537627
4473,199475.7162075408
2,3, 1, 3, 0,18, 0.00,60.00,Saturday
11,279550295.53246089
47,111937382.99999996
71,64017782.99999998
346,47919599.99999992
993,113145659.99999997
1017,113145659.99999997
1497,177462812.98321254
1533,28597212.921243654
1557,28597212.921243654
2228,9490819.490785348
2366,2812556.880430446
4114,33016758.785724179
4126,17252394.26426283
4162,14199365.105798256
4210,11758233.108406324
4236,146053043.18153847
4348,0.0
4473,201441.14754510544
2,3, 1, 3, 0,19, 0.00,60.00,Saturday
11,305987280.5303766
47,128942549.99999987
71,38125349.999999988
346,90817199.99999984
993,125066699.99999988
1017,125066699.99999988
1497,176590160.3921448
1533,28597212.921243654
1557,28597212.921243654
2228,8199109.468154235
2366,2698030.7830113277
4114,31173402.95641245
4126,16519620.280973195
4162,14199365.105798256
4210,12400395.163795315
4236,145294916.68788985
4348,0.0
4473,205122.94201485505
2,3, 1, 3, 0,20, 0.00,60.00,Saturday
11,317377954.11193218
47,142745273.9999998
71,23329673.999999994
346,119415599.9999998
993,138176819.9999998
1017,138176819.9999998
1497,176456017.88692255
1533,0.0
1557,0.0
2228,7433598.254776384
2366,2456174.2965284066
4114,28778811.32506644
4126,14487417.026481722
4162,14199365.105798256
4210,30780.50815273643
4236,173999843.59039415
4348,0.0
4473,212670.0239369364
2,3, 1, 3, 0,21, 0.00,60.00,Saturday
11,344625266.9507054
47,157044473.99999977
71,23329673.999999994
346,133714799.99999979
993,152476019.99999977
1017,152476019.99999977
1497,239311673.78611053
1533,0.0
1557,0.0
2228,5917654.88200503
2366,2064128.5680635707
4114,28905910.15392988
4126,14487417.026481722
4162,14199365.105798256
4210,42774.73373898838
4236,237247545.21804694
4348,0.0
4473,238433.18103182465
2,3, 1, 3, 0,22, 0.00,60.00,Saturday
11,285201576.94635048
47,127949597.9999998
71,8533997.999999999
346,119415599.9999998
993,122688539.9999998
1017,122688539.9999998
1497,308066476.6210725
1533,0.0
1557,0.0
2228,4602495.1262289029
2366,1995447.9213550892
4114,29628986.636658558