Program Version,EnergyPlus, Version 9.0.1-bb7ca4f0da, YMD=2019.12.13 16:29
1,5,Environment Title[],Latitude[deg],Longitude[deg],Time Zone[],Elevation[m]
2,8,Day of Simulation[],Month[],Day of Month[],DST Indicator[1=yes 0=no],Hour[],StartMinute[],EndMinute[],DayType
3,5,Cumulative Day of Simulation[],Month[],Day of Month[],DST Indicator[1=yes 0=no],DayType  ! When Daily Meters Requested
4,2,Cumulative Days of Simulation[],Month[]  ! When Monthly Meters Requested
5,1,Cumulative Days of Simulation[] ! When Run Period Meters Requested
6,1,Calendar Year of Simulation[] ! When Annual Meters Requested
11,1,Electricity:Facility [J] !Hourly
4126,1,General:Fans:Electricity [J] !Hourly
71,1,ComplianceLtg:InteriorLights:Electricity [J] !Hourly
47,1,InteriorLights:Electricity [J] !Hourly
993,1,InteriorEquipment:Electricity [J] !Hourly
4114,1,Fans:Electricity [J] !Hourly
4473,1,Pumps:Electricity [J] !Hourly
4210,1,Heating:Electricity [J] !Hourly
4348,1,Cooling:Electricity [J] !Hourly
2228,1,WaterSystems:Electricity [J] !Hourly
4236,1,Heating:Gas [J] !Hourly
2366,1,WaterSystems:Gas [J] !Hourly
1497,1,Gas:Facility [J] !Hourly
1533,1,InteriorEquipment:Gas [J] !Hourly
1017,1,Receptacle:InteriorEquipment:Electricity [J] !Hourly
1557,1,Receptacle:InteriorEquipment:Gas [J] !Hourly
346,1,NonComplianceLtg:InteriorLights:Electricity [J] !Hourly
4162,1,ProcessMotors:Fans:Electricity [J] !Hourly
End of Data Dictionary
1,OAKLAND_724930_CZ2010,  37.72,-122.22,  -8.00,   2.00
2,1, 1, 1, 0, 1, 0.00,60.00,Holiday
11,66341734.31127437
47,24156278.99999996
71,4835078.999999999
346,19321199.999999968
993,18722069.99999997
1017,18722069.99999997
1497,1042651.786822372
1533,0.0
1557,0.0
2228,805678.8658640316
2366,1042651.786822372
4114,22657706.445410395
4126,8458341.339612136
4162,14199365.105798256
4210,0.0
4236,0.0
4348,0.0
4473,0.0
2,1, 1, 1, 0, 2, 0.00,60.00,Holiday
11,67147204.46701041
47,24156278.99999996
71,4835078.999999999
346,19321199.999999968
993,18722069.99999997
1017,18722069.99999997
1497,1042773.3556239077
1533,0.0
1557,0.0
2228,1611149.0216000765
2366,1042773.3556239077
4114,22657706.445410395
4126,8458341.339612136
4162,14199365.105798256
4210,0.0
4236,0.0
4348,0.0
4473,0.0
2,1, 1, 1, 0, 3, 0.00,60.00,Holiday
11,67147231.95592967
47,24156278.99999996
71,4835078.999999999
346,19321199.999999968
993,18722069.99999997
1017,18722069.99999997
1497,1303444.7020435145
1533,0.0
1557,0.0
2228,1611176.510519326
2366,1303444.7020435145
4114,22657706.445410395
4126,8458341.339612136
4162,14199365.105798256
4210,0.0
4236,0.0
4348,0.0
4473,0.0
2,1, 1, 1, 0, 4, 0.00,60.00,Holiday
11,66338538.31884295
47,24156278.99999996
71,4835078.999999999
346,19321199.999999968
993,18722069.99999997
1017,18722069.99999997
1497,1037338.0887808107
1533,0.0
1557,0.0
2228,802482.8734326053
2366,1037338.0887808107
4114,22657706.445410395
4126,8458341.339612136
4162,14199365.105798256
4210,0.0
4236,0.0
4348,0.0
4473,0.0
2,1, 1, 1, 0, 5, 0.00,60.00,Holiday
11,67130476.9085209
47,24156278.99999996
71,4835078.999999999
346,19321199.999999968
993,18722069.99999997
1017,18722069.99999997
1497,1037576.7929839178
1533,0.0
1557,0.0
2228,1594421.463110576
2366,1037576.7929839178
4114,22657706.445410395
4126,8458341.339612136
4162,14199365.105798256
4210,0.0
4236,0.0
4348,0.0
4473,0.0
2,1, 1, 1, 0, 6, 0.00,60.00,Holiday
11,136595526.88432095
47,52754678.99999992
71,4835078.999999999
346,47919599.99999992
993,47320469.999999929
1017,47320469.999999929
1497,1305585.483511119
1533,0.0
1557,0.0
2228,1598013.9115499203
2366,1305585.483511119
4114,24689867.024383874
4126,10490501.918585619
4162,14199365.105798256
4210,10232496.948387199
4236,0.0
4348,0.0
4473,0.0
2,1, 1, 1, 0, 7, 0.00,60.00,Holiday
11,187712383.67528249
47,74203478.99999988
71,4835078.999999999
346,69368399.9999999
993,68769269.9999999
1017,68769269.9999999
1497,237808495.55419094
1533,28597212.921243654
1557,28597212.921243654
2228,805518.9097508491
2366,1042765.5984545623
4114,33897910.80103731
4126,10490501.91858562
4162,14199365.105798256
4210,10036204.964494547
4236,208168517.03449268
4348,0.0
4473,0.0
2,1, 1, 1, 0, 8, 0.00,60.00,Holiday
11,185101308.8255701
47,74200681.63961274
71,4832281.639612861
346,69368399.9999999
993,68769269.9999999
1017,68769269.9999999
1497,134651070.02571739
1533,28597212.921243654
1557,28597212.921243654
2228,2478520.1532813755
2366,1323251.474865533
4114,29322479.371933856
4126,10490501.918585619
4162,14199365.105798256
4210,10330357.66074225
4236,104730605.62960822
4348,0.0
4473,0.0
2,1, 1, 1, 0, 9, 0.00,60.00,Holiday
11,204962092.747825
47,77866802.64635952
71,8498402.646359645
346,69368399.9999999
993,72641339.99999988
1017,72641339.99999988
1497,415931195.65051159
1533,0.0
1557,0.0
2228,2521552.40055197
2366,1336869.944783802
4114,40978925.12598598
4126,23341091.40438915
4162,14199365.105798256
4210,10248046.337169916
4236,414594325.7057277
4348,0.0
4473,705426.237757746
2,1, 1, 1, 0,10, 0.00,60.00,Holiday
11,197279427.79356275
47,77828288.76768735
71,8459888.76768747
346,69368399.9999999
993,72641339.99999988
1017,72641339.99999988
1497,326513313.13228347
1533,0.0
1557,0.0
2228,2565979.835440733
2366,1350392.1740133246
4114,33937622.11948127
4126,16548354.003767401
4162,14199365.105798256
4210,10040367.676090913
4236,325162920.9582701
4348,0.0
4473,265829.3948626217
2,1, 1, 1, 0,11, 0.00,60.00,Holiday
11,203141838.85082639
47,78190933.56636949
71,30271333.566369535
346,47919599.99999992
993,74424959.99999996
1017,74424959.99999996
1497,256069604.03914459
1533,0.0
1557,0.0
2228,5915849.534871649
2366,2049062.7955569062
4114,34821191.40095078
4126,16519577.605455207
4162,14199365.105798256
4210,9580149.34686093
4236,254020541.24358768
4348,0.0
4473,208755.00177360493
2,1, 1, 1, 0,12, 0.00,60.00,Holiday
11,202501160.9865688
47,78111469.29785337
71,30191869.2978534
346,47919599.99999992
993,74424959.99999996
1017,74424959.99999996
1497,237267839.88159517
1533,11438885.168497468
1557,11438885.168497468
2228,6039403.724989705
2366,2380305.6639782518
4114,34275953.75006397
4126,16519577.605455207
4162,14199365.105798256
4210,9445346.975987513
4236,223448649.04911948
4348,0.0
4473,204027.2376743626
2,1, 1, 1, 0,13, 0.00,60.00,Holiday
11,230484794.73175843
47,89028078.20844628
71,41108478.2084463
346,47919599.99999992
993,89913239.99999997
1017,89913239.99999997
1497,192380898.23231275
1533,11438885.168497468
1557,11438885.168497468
2228,7433390.977493842
2366,2423235.5425723057
4114,34078260.22398609
4126,16519577.605455207
4162,14199365.105798256
4210,9831831.349005036
4236,178518777.52124299
4348,0.0
4473,199993.97282729907
2,1, 1, 1, 0,14, 0.00,60.00,Holiday
11,229871114.15098537
47,89125388.39309971
71,41205788.39309974
346,47919599.99999992
993,89913239.99999997
1017,89913239.99999997
1497,153809702.45026434
1533,0.0
1557,0.0
2228,7434080.203287318
2366,2461127.413637249
4114,33641539.65846433
4126,16519577.605455207
4162,14199365.105798256
4210,9557814.147294835
4236,151348575.0366271
4348,0.0
4473,199051.74883925959
2,1, 1, 1, 0,15, 0.00,60.00,Holiday
11,228891850.65845985
47,89177238.41523844
71,41257638.41523846
346,47919599.99999992
993,89913239.99999997
1017,89913239.99999997
1497,135088161.68171437
1533,0.0
1557,0.0
2228,6972223.40396135
2366,2150601.237026614
4114,33359310.534848237
4126,16519577.605455207
4162,14199365.105798256
4210,9271304.22491598
4236,132937560.44468774
4348,0.0
4473,198534.07949592005
2,1, 1, 1, 0,16, 0.00,60.00,Holiday
11,227839848.07964919
47,89077977.53485355
71,41158377.53485357
346,47919599.99999992
993,89913239.99999997
1017,89913239.99999997
1497,118586121.7873398
1533,0.0
1557,0.0
2228,6605760.340212574
2366,2423529.933457724
4114,32732419.58679945
4126,16519577.605455207
4162,14199365.105798256
4210,9311979.869702151
4236,116162591.85388208
4348,0.0
4473,198470.7480814978
2,1, 1, 1, 0,17, 0.00,60.00,Holiday
11,229483312.40534357
47,89630651.41919849
71,41711051.4191985
346,47919599.99999992
993,89913239.99999997
1017,89913239.99999997
1497,151432425.4539846
1533,28597212.921243654
1557,28597212.921243654
2228,7515357.639323687
2366,2451308.142546104
4114,32609010.641915204
4126,16519577.605455207
4162,14199365.105798256
4210,9616328.097078387
4236,120383904.39019485
4348,0.0
4473,198724.60782788948
2,1, 1, 1, 0,18, 0.00,60.00,Holiday
11,203593113.18171526
47,78647111.99999994
71,30727511.99999999
346,47919599.99999992
993,74424959.99999996
1017,74424959.99999996
1497,202460376.20759709
1533,28597212.921243654
1557,28597212.921243654
2228,7273629.122298938
2366,2204082.831315849
4114,33120576.427544845
4126,16519577.605455207
4162,14199365.105798256
4210,9925915.155339238
4236,171659080.45503757
4348,0.0
4473,200920.47653238386
2,1, 1, 1, 0,19, 0.00,60.00,Holiday
11,242507120.1803591
47,106749035.99999982
71,15931835.999999995
346,90817199.99999984
993,101834279.99999984
1017,101834279.99999984
1497,200030078.930829
1533,28597212.921243654
1557,28597212.921243654
2228,4737071.750218186
2366,1912393.7926392277
4114,28950918.30271521
4126,14487417.026481722
4162,14199365.105798256
4210,29281.8981326468
4236,169520472.2169461
4348,0.0
4473,206532.22929330555
2,1, 1, 1, 0,20, 0.00,60.00,Holiday
11,271545566.47482398
47,124250678.9999998
71,4835078.999999999
346,119415599.9999998
993,118816469.99999982
1017,118816469.99999982
1497,2522768.0086436534
1533,0.0
1557,0.0
2228,5798762.618573831
2366,2026574.3125423827
4114,22679654.85625036
4126,8458341.339612136
4162,14199365.105798256
4210,0.0
4236,496193.6961012708
4348,0.0
4473,0.0
2,1, 1, 1, 0,21, 0.00,60.00,Holiday
11,298333660.76699337
47,138549878.9999998
71,4835078.999999999
346,133714799.99999979
993,133115669.99999979
1017,133115669.99999979
1497,1954115.0759378235
1533,0.0
1557,0.0
2228,3998327.4012375466
2366,1681066.2442358975
4114,22669784.365756129
4126,8458341.339612136
4162,14199365.105798256
4210,0.0
4236,273048.8317019257
4348,0.0
4473,0.0
2,1, 1, 1, 0,22, 0.00,60.00,Holiday
11,268905840.01868036
47,124250678.9999998
71,4835078.999999999
346,119415599.9999998
993,118816469.99999982
1017,118816469.99999982
1497,2397190.9116834129
1533,0.0
1557,0.0
2228,3147872.7559531445
2366,1648623.0477510533
4114,22690818.262727459
4126,8458341.339612136
4162,14199365.105798256
4210,0.0
4236,748567.8639323595
4348,0.0
4473,0.0
2,1, 1, 1, 0,23, 0.00,60.00,Holiday
11,211006509.7529811
47,95652278.99999984
71,4835078.999999999
346,90817199.99999984
993,90218069.99999985
1017,90218069.99999985
1497,1323208.5395904286
1533,0.0
1557,0.0
2228,2478454.307570955
2366,1323208.5395904286
4114,22657706.445410395
4126,8458341.339612136
4162,14199365.105798256
4210,0.0
4236,0.0
4348,0.0
4473,0.0
2,1, 1, 1, 0,24, 0.00,60.00,Holiday
11,123531801.03491959
47,52754678.99999992
71,4835078.999999999
346,47919599.99999992
993,47320469.999999929
1017,47320469.999999929
1497,1037753.1084821371
1533,0.0
1557,0.0
2228,798945.5895092465
2366,1037753.1084821371
4114,22657706.445410395
4126,8458341.339612136
4162,14199365.105798256
4210,0.0
4236,0.0
4348,0.0
4473,0.0
2,2, 1, 2, 0, 1, 0.00,60.00,Friday
11,66322096.51229792
47,24156278.99999996
71,4835078.999999999
346,19321199.999999968
993,18722069.99999997
1017,18722069.99999997
1497,1029514.0218875116
1533,0.0
1557,0.0
2228,786041.0668875778
2366,1029514.0218875116
4114,22657706.445410395
4126,8458341.339612136
4162,14199365.105798256
4210,0.0
4236,0.0
4348,0.0
4473,0.0
2,2, 1, 2, 0, 2, 0.00,60.00,Friday
11,67120928.5090776
47,24156278.99999996
71,4835078.999999999
346,19321199.999999968
993,18722069.99999997
1017,18722069.99999997
1497,1034716.2103524054
1533,0.0
1557,0.0
2228,1584873.0636672546
2366,1034716.2103524054
4114,22657706.445410395
4126,8458341.339612136
4162,14199365.105798256
4210,0.0
4236,0.0
4348,0.0
4473,0.0
2,2, 1, 2, 0, 3, 0.00,60.00,Friday
11,66358199.464876819
47,24156278.99999996
71,4835078.999999999
346,19321199.999999968
993,18722069.99999997
1017,18722069.99999997
1497,1706703.687873365
1533,0.0
1557,0.0
2228,792426.5894978474
2366,1034873.6623521543
4114,22687423.875379027
4126,8458341.339612136
4162,14199365.105798256
4210,0.0
4236,671830.0255212106
4348,0.0
4473,0.0
2,2, 1, 2, 0, 4, 0.00,60.00,Friday
11,66532865.831713709
47,24156278.99999996
71,4835078.999999999
346,19321199.999999968
993,18722069.99999997
1017,18722069.99999997
1497,5797071.585906197
1533,0.0
1557,0.0
2228,785940.9690946865
2366,1029891.8137657351
4114,22868575.86261906
4126,8458341.339612136
4162,14199365.105798256
4210,0.0
4236,4767179.772140462
4348,0.0
4473,0.0
2,2, 1, 2, 0, 5, 0.00,60.00,Friday
11,67083160.63798951
47,24156278.99999996
71,4835078.999999999
346,19321199.999999968
993,18722069.99999997
1017,18722069.99999997
1497,18236620.538051554
1533,0.0
1557,0.0
2228,785990.4842165291
2366,1029912.4346520694
4114,23418821.15377304
4126,8458341.339612136
4162,14199365.105798256
4210,0.0
4236,17206708.103399487
4348,0.0
4473,0.0
2,2, 1, 2, 0, 6, 0.00,60.00,Friday
11,150109901.91541965
47,53890838.99999992
71,5971238.999999999
346,47919599.99999992
993,47871269.999999929
1017,47871269.999999929
1497,15011376.118409057
1533,0.0
1557,0.0
2228,786095.6312002306
2366,1295267.9106725984
4114,25296579.827061554
4126,10490501.918585619
4162,14199365.105798256
4210,22265117.457157915
4236,13716108.207736459
4348,0.0
4473,0.0
2,2, 1, 2, 0, 7, 0.00,60.00,Friday
11,231949547.14287854
47,80361638.99999988
71,5971238.999999999
346,74390399.99999988
993,69320069.9999999
1017,69320069.9999999
1497,898294122.2232771
1533,28597212.921243654
1557,28597212.921243654
2228,786127.4347595391
2366,1034058.6193371355
4114,58236328.411988358
4126,23118798.84024465
4162,14199365.105798256
4210,22344412.320524649
4236,868662850.6826962
4348,0.0
4473,900969.9756061904
2,2, 1, 2, 0, 8, 0.00,60.00,Friday
11,246980843.9519938
47,95991824.84483743
71,21601424.84483755
346,74390399.99999988
993,83139479.99999988
1017,83139479.99999988
1497,600824685.1091547
1533,28882321.086319496
1557,28882321.086319496
2228,3453078.915878238
2366,1686204.282690646
4114,42397414.41380175
4126,16532274.03900261
4162,14199365.105798256
4210,21694189.960422614
4236,570256159.7401446
4348,0.0
4473,304855.817053853
2,2, 1, 2, 0, 9, 0.00,60.00,Friday
11,299158588.3807993
47,125955268.2962756
71,51564868.29627574
346,74390399.99999988
993,112981499.99999987
1017,112981499.99999987
1497,421181634.1507212
1533,285108.16507584266
1557,285108.16507584266
2228,4650332.562036442
2366,2444634.3659560007
4114,39526342.531813878
4126,16519577.605455207
4162,14199365.105798256
4210,15818691.269351347
4236,418451891.61968937
4348,0.0
4473,226453.72132202105
2,2, 1, 2, 0,10, 0.00,60.00,Friday
11,351865666.3449881
47,151040057.36297716
71,76649657.36297722
346,74390399.99999988
993,143958059.99999995
1017,143958059.99999995
1497,319793540.8994259
1533,285108.16507584266
1557,285108.16507584266
2228,6109396.605188817
2366,2890135.6889842215
4114,38206573.288757707
4126,16564304.77184914
4162,14199365.105798256
4210,12343760.197535549
4236,316618297.0453658
4348,0.0
4473,207818.89052894215
2,2, 1, 2, 0,11, 0.00,60.00,Friday
11,311237547.431931
47,128556240.13946328
71,75614640.1394633
346,52941599.9999999
993,122509259.99999996
1017,122509259.99999996
1497,328984693.9843152
1533,513194.69713651677
1557,513194.69713651677
2228,8707199.818469979
2366,3147141.800574523
4114,38919146.99338699
4126,16610513.752333472
4162,14199365.105798256
4210,12338976.94717294
4236,325324357.4866042
4348,0.0
4473,206723.53343790296
2,2, 1, 2, 0,12, 0.00,60.00,Friday
11,312985106.5103458
47,128793223.83394258
71,75851623.8339426
346,52941599.9999999
993,122509259.99999996
1017,122509259.99999996
1497,305812341.4236413
1533,11952079.865633984
1557,11952079.865633984
2228,11416664.13959815
2366,3963330.5262639739
4114,38277873.28809306
4126,16843251.863903218
4162,14199365.105798256
4210,11784188.945928263
4236,289896931.03174337
4348,0.0
4473,203896.30278388778
2,2, 1, 2, 0,13, 0.00,60.00,Friday
11,308811617.1053739
47,126721119.07395482
71,73779519.07395485
346,52941599.9999999
993,122509259.99999996
1017,122509259.99999996
1497,235960719.6494332
1533,11952079.865633984
1557,11952079.865633984
2228,12177151.568281262
2366,4627654.764436817
4114,36209936.02121432
4126,16907597.95196683
4162,14199365.105798256
4210,10993285.789460222
4236,219380985.0193624
4348,0.0
4473,200864.6524634944
2,2, 1, 2, 0,14, 0.00,60.00,Friday
11,308196410.662205
47,127162134.67623699
71,74220534.67623702
346,52941599.9999999
993,122509259.99999996
1017,122509259.99999996
1497,182209875.44564779
1533,513194.69713651677
1557,513194.69713651677
2228,12937219.953852112
2366,4251126.192353604
4114,34955998.3922052
4126,16970716.71135885
4162,14199365.105798256
4210,10432128.889290724
4236,177445554.5561577
4348,0.0
4473,199668.75062001867
2,2, 1, 2, 0,15, 0.00,60.00,Friday
11,304455485.80753836
47,127579498.25536455
71,74637898.25536455
346,52941599.9999999
993,122509259.99999996
1017,122509259.99999996
1497,164571485.57287935
1533,427662.2476137639
1557,427662.2476137639
2228,10052582.34724918
2366,3616814.6024817174
4114,34493966.53137194
4126,17126756.78705871
4162,14199365.105798256
4210,9620755.343723832
4236,160527008.72278387
4348,0.0
4473,199423.32982898176
2,2, 1, 2, 0,16, 0.00,60.00,Friday
11,298520891.6761202
47,125096124.34941271
71,72154524.34941274
346,52941599.9999999
993,122509259.99999996
1017,122509259.99999996
1497,122857671.19698924
1533,427662.2476137639
1557,427662.2476137639
2228,8600854.742206594
2366,3136961.4478927685
4114,33328296.71323213
4126,17531822.324092814
4162,14199365.105798256
4210,8787248.539479753
4236,119293047.5014827
4348,0.0
4473,199107.3317890465
2,2, 1, 2, 0,17, 0.00,60.00,Friday
11,302917358.52612057
47,129242765.54643898
71,76301165.546439
346,52941599.9999999
993,122509259.99999996
1017,122509259.99999996
1497,149420028.62967829
1533,29024875.168857416
1557,29024875.168857416
2228,9207314.339906993
2366,3625695.136538631
4114,33201806.27233033
4126,17561662.426408028
4162,14199365.105798256
4210,8556997.25890641
4236,116769458.32428223
4348,0.0
4473,199215.108538015
2,2, 1, 2, 0,18, 0.00,60.00,Friday
11,296503321.24784037
47,123776342.99999996
71,70834742.99999997
346,52941599.9999999
993,118102859.99999997
1017,118102859.99999997
1497,180548066.74627058
1533,29024875.168857416
1557,29024875.168857416
2228,9670523.477836732
2366,3156820.6742366428
4114,33647930.37744247
4126,17059643.199756028
4162,14199365.105798256
4210,11105823.302415207
4236,148366370.9031765
4348,0.0
4473,199841.09014606055
2,2, 1, 2, 0,19, 0.00,60.00,Friday
11,330505916.9471049
47,143344268.99999986
71,47505068.99999999
346,95839199.99999984
993,135564839.99999989
1017,135564839.99999989
1497,158408023.2387786
1533,28597212.921243654
1557,28597212.921243654
2228,8573657.4997267
2366,2934311.1791430886
4114,31411454.578025294
4126,16692427.430519293
4162,14199365.105798256
4210,11409834.886754545
4236,126876499.13839183
4348,0.0
4473,201860.98259853578
2,2, 1, 2, 0,20, 0.00,60.00,Friday
11,385482138.0715945
47,171942668.99999974
71,47505068.99999999
346,124437599.9999998
993,164163239.99999974
1017,164163239.99999974
1497,121970908.25469716
1533,0.0
1557,0.0
2228,6713744.969501205
2366,2478398.673059997
4114,30873989.324281604
4126,16558476.940252373
4162,14199365.105798256
4210,11586259.403027647
4236,119492509.58163716
4348,0.0
4473,202235.37478436443
2,2, 1, 2, 0,21, 0.00,60.00,Friday
11,400115197.1770505
47,180270629.9999997
71,41533829.999999988
346,138736799.9999998
993,169616699.99999974
1017,169616699.99999974
1497,136481911.6638406
1533,0.0
1557,0.0
2228,7124148.23260336
2366,2491298.02595377
4114,30815576.7465324
4126,16519577.605455207
4162,14199365.105798256
4210,12083654.016172722
4236,133990613.63788682
4348,0.0
4473,204488.18174231763
2,2, 1, 2, 0,22, 0.00,60.00,Friday
11,318198757.1184186
47,143777915.9999998
71,19340315.999999998
346,124437599.9999998
993,132085079.9999998
1017,132085079.9999998
1497,7110612.922649843
1533,0.0
1557,0.0
2228,4714970.811517569
2366,1988196.219735453
4114,24916450.0835287
4126,10490501.918585619
4162,14199365.105798256
4210,12704340.22337261
4236,5122416.70291439
4348,0.0
4473,0.0
2,2, 1, 2, 0,23, 0.00,60.00,Friday
11,230156035.1018151
47,96788438.99999984
71,5971238.999999999
346,90817199.99999984
993,90768869.99999985
1017,90768869.99999985
1497,1346676.6587096193
1533,0.0
1557,0.0
2228,2543485.533440229
2366,1346676.6587096193
4114,24689867.024383874
4126,10490501.918585619
4162,14199365.105798256
4210,15365373.543991276
4236,0.0
4348,0.0
4473,0.0
2,2, 1, 2, 0,24, 0.00,60.00,Friday
11,140767774.05198527
47,52754678.99999992
71,4835078.999999999
346,47919599.99999992
993,47320469.999999929
1017,47320469.999999929
1497,1312843.3325049396
1533,0.0
1557,0.0
2228,1624765.646952713
2366,1312843.3325049396
4114,24689867.024383874
4126,10490501.918585619
4162,14199365.105798256
4210,14377992.380648723
4236,0.0
4348,0.0
4473,0.0
2,3, 1, 3, 0, 1, 0.00,60.00,Saturday
11,67202927.50704605
47,24156278.99999996
71,4835078.999999999
346,19321199.999999968
993,18722069.99999997
1017,18722069.99999997
1497,1332807.3908959428
1533,0.0
1557,0.0
2228,1666872.0616357204
2366,1332807.3908959428
4114,22657706.445410395
4126,8458341.339612136
4162,14199365.105798256
4210,0.0
4236,0.0
4348,0.0
4473,0.0
2,3, 1, 3, 0, 2, 0.00,60.00,Saturday
11,68021260.59004271
47,24156278.99999996
71,4835078.999999999
346,19321199.999999968
993,18722069.99999997
1017,18722069.99999997
1497,1474852.0576171585
1533,0.0
1557,0.0
2228,2478625.101452777
2366,1326095.2310023439
4114,22664286.48858999
4126,8458341.339612136
4162,14199365.105798256
4210,0.0
4236,148756.82661481456
4348,0.0
4473,0.0
2,3, 1, 3, 0, 3, 0.00,60.00,Saturday
11,67320233.85913262
47,24156278.99999996
71,4835078.999999999
346,19321199.999999968
993,18722069.99999997
1017,18722069.99999997
1497,4651165.731426377
1533,0.0
1557,0.0
2228,1624893.5953666527
2366,1050172.1725726375
4114,22816991.26376602
4126,8458341.339612136
4162,14199365.105798256
4210,0.0
4236,3600993.55885374
4348,0.0
4473,0.0
2,3, 1, 3, 0, 4, 0.00,60.00,Saturday
11,66967114.74137048
47,24156278.99999996
71,4835078.999999999
346,19321199.999999968
993,18722069.99999997
1017,18722069.99999997
1497,15589846.03670634
1533,0.0
1557,0.0
2228,798959.4997531558
2366,1299810.889440901
4114,23289806.241617379
4126,8458341.339612136
4162,14199365.105798256
4210,0.0
4236,14290035.147265438
4348,0.0
4473,0.0
2,3, 1, 3, 0, 5, 0.00,60.00,Saturday
11,69159780.7504309
47,24156278.99999996
71,4835078.999999999
346,19321199.999999968
993,18722069.99999997
1017,18722069.99999997
1497,46833040.19482139
1533,0.0
1557,0.0
2228,1598130.9481426613
2366,1039931.6912021709
4114,24683300.80228829
4126,8458341.339612136
4162,14199365.105798256
4210,0.0
4236,45793108.50361922
4348,0.0
4473,0.0
2,3, 1, 3, 0, 6, 0.00,60.00,Saturday
11,178253847.16915346
47,52754678.99999992
71,4835078.999999999
346,47919599.99999992
993,47320469.999999929
1017,47320469.999999929
1497,56571252.9356839
1533,0.0
1557,0.0
2228,1598049.1659901739
2366,1126727.8573256762
4114,27142378.10488315
4126,10490501.918585619
4162,14199365.105798256
4210,49438270.89828022
4236,55444525.07835822
4348,0.0
4473,0.0
2,3, 1, 3, 0, 7, 0.00,60.00,Saturday
11,265281815.8476459
47,80361638.99999988
71,5971238.999999999
346,74390399.99999988
993,69320069.9999999
1017,69320069.9999999
1497,1118505953.1494866
1533,28597212.921243654
1557,28597212.921243654
2228,805593.440056887
2366,1231855.0107982886
4114,64439137.80500977
4126,21658234.013453708
4162,14199365.105798256
4210,49466076.57310221
4236,1088676885.2174447
4348,0.0
4473,889299.0294772284
2,3, 1, 3, 0, 8, 0.00,60.00,Saturday
11,259598573.72862644
47,83874800.51913324
71,9484400.519133356
346,74390399.99999988
993,73192139.99999988
1017,73192139.99999988
1497,802711459.0441722
1533,28597212.921243654
1557,28597212.921243654
2228,4516601.704691898
2366,1821531.7543743912
4114,48115695.027548979
4126,16519577.605455207
4162,14199365.105798256
4210,49418712.57479674
4236,772292714.368554
4348,0.0
4473,480623.9024556813
2,3, 1, 3, 0, 9, 0.00,60.00,Saturday
11,289255814.04413959
47,100695628.80544544
71,26305228.805445576
346,74390399.99999988
993,90883619.99999987
1017,90883619.99999987
1497,621235429.0259892
1533,285108.16507584266
1557,285108.16507584266
2228,4692587.970873591
2366,2146680.256753874
4114,43122088.734469968
4126,16519577.605455207
4162,14199365.105798256
4210,49464736.78942556
4236,618803640.6041595
4348,0.0
4473,397151.74392511867
2,3, 1, 3, 0,10, 0.00,60.00,Saturday
11,324223532.60598048
47,117985586.74928984
71,43595186.749289978
346,74390399.99999988
993,114116039.99999988
1017,114116039.99999988
1497,418702740.5474422
1533,285108.16507584266
1557,285108.16507584266
2228,5801094.02317306
2366,2182811.2950685315
4114,38262761.23644077
4126,16563812.354658138
4162,14199365.105798256
4210,47781762.051819209
4236,416234821.0872978
4348,0.0
4473,276288.5452576863
2,3, 1, 3, 0,11, 0.00,60.00,Saturday
11,298478173.8455752
47,116672110.49469422
71,63730510.494694229
346,52941599.9999999
993,115899659.99999997
1017,115899659.99999997
1497,297283613.6664548
1533,513194.69713651677
1557,513194.69713651677
2228,7962219.566812016
2366,2957549.6014879865
4114,36027753.16891792
4126,16660963.965042314
4162,14199365.105798256
4210,21696521.89929536
4236,293812869.3678303
4348,0.0
4473,219908.71585588179
2,3, 1, 3, 0,12, 0.00,60.00,Saturday
11,291989966.6854235
47,116653658.7138813
71,63712058.713881317
346,52941599.9999999
993,115899659.99999997
1017,115899659.99999997
1497,235750567.72941263
1533,11952079.865633984
1557,11952079.865633984
2228,10913377.921480002
2366,3596954.1009602898
4114,34476685.98823145
4126,16917892.29264579
4162,14199365.105798256
4210,13838760.170950316
4236,220201533.76281835
4348,0.0
4473,207823.89088057419
2,3, 1, 3, 0,13, 0.00,60.00,Saturday
11,285162995.49618449
47,113208338.494405
71,60266738.49440501
346,52941599.9999999
993,114247259.99999997
1017,114247259.99999997
1497,184648669.23177726
1533,11952079.865633984
1557,11952079.865633984
2228,12454804.69027913
2366,3608107.409496594
4114,33254197.415016287
4126,16990218.763267939
4162,14199365.105798256
4210,11794961.359563547
4236,169088481.95664669
4348,0.0
4473,203433.5369207338
2,3, 1, 3, 0,14, 0.00,60.00,Saturday
11,283481149.41611638
47,113198492.80807401
71,60256892.80807403
346,52941599.9999999
993,114247259.99999997
1017,114247259.99999997
1497,147645192.09298436
1533,513194.69713651677
1557,513194.69713651677
2228,11540041.005851482
2366,3608089.098145143
4114,32742216.45281487
4126,17145992.937792858
4162,14199365.105798256
4210,11508205.037732562
4236,143523908.2977027
4348,43143.23034843094
4473,201790.88129512204
2,3, 1, 3, 0,15, 0.00,60.00,Saturday
11,282194042.8265099
47,113195546.16404762
71,60253946.16404764
346,52941599.9999999
993,114247259.99999997
1017,114247259.99999997
1497,124561582.79392897
1533,427662.2476137639
1557,427662.2476137639
2228,9914390.788714583
2366,3223281.310198738
4114,32831821.277596818
4126,17602169.577127614
4162,14199365.105798256
4210,11452750.382457322
4236,120910639.23611647
4348,351816.64405651288
4473,200457.5696371476
2,3, 1, 3, 0,16, 0.00,60.00,Saturday
11,282241412.8286605
47,113480191.61679814
71,60538591.61679816
346,52941599.9999999
993,114247259.99999997
1017,114247259.99999997
1497,101802388.2407058
1533,427662.2476137639
1557,427662.2476137639
2228,9787338.081871976
2366,3013515.959697948
4114,32993694.6468257
4126,17939772.47126235
4162,14199365.105798256
4210,10998365.03932479
4236,98361210.03339409
4348,535433.6201860625
4473,199129.82365395694
2,3, 1, 3, 0,17, 0.00,60.00,Saturday
11,286850941.08921328
47,118508549.98495214
71,65566949.98495216
346,52941599.9999999
993,114247259.99999997
1017,114247259.99999997
1497,135485023.80118943
1533,29024875.168857416
1557,29024875.168857416
2228,9664457.3464006
2366,3011018.520279724
4114,33093191.93695805
4126,18012639.70626518
4162,14199365.105798256
4210,11112451.332622702
4236,103449130.11205228
4348,25903.201816994544
4473,199127.28646290949
2,3, 1, 3, 0,18, 0.00,60.00,Saturday
11,279690066.248373
47,111937382.99999996
71,64017782.99999998
346,47919599.99999992
993,113145659.99999997
1017,113145659.99999997
1497,170703275.96731133
1533,28597212.921243654
1557,28597212.921243654
2228,9490283.521089286
2366,2812366.429720357
4114,33158548.91327371
4126,17467419.54191256
4162,14199365.105798256
4210,11757319.339731209
4236,139293696.6163473
4348,0.0
4473,200871.47427891254
2,3, 1, 3, 0,19, 0.00,60.00,Saturday
11,305871072.6717366
47,128942549.99999987
71,38125349.999999988
346,90817199.99999984
993,125066699.99999988
1017,125066699.99999988
1497,173084259.56364126
1533,28597212.921243654
1557,28597212.921243654
2228,8199631.48065152
2366,2698218.409726415
4114,31056970.407187176
4126,16519764.00692251
4162,14199365.105798256
4210,12400239.28802709
4236,141788828.23267118
4348,0.0
4473,204981.49587102782
2,3, 1, 3, 0,20, 0.00,60.00,Saturday
11,317328759.4410535
47,142745273.9999998
71,23329673.999999994
346,119415599.9999998
993,138176819.9999998
1017,138176819.9999998
1497,169938564.74666176
1533,0.0
1557,0.0
2228,7433598.672142699
2366,2456173.8546447448
4114,28731503.083885869
4126,14487417.026481722
4162,14199365.105798256
4210,29805.106015307465
4236,167482390.892017
4348,0.0
4473,211758.57900998777
2,3, 1, 3, 0,21, 0.00,60.00,Saturday
11,344516633.96116366
47,157044473.99999977
71,23329673.999999994
346,133714799.99999979
993,152476019.99999977
1017,152476019.99999977
1497,233388223.14169956
1533,0.0
1557,0.0
2228,5917655.120168303
2366,2064128.58419023
4114,28799394.305670669
4126,14487417.026481722
4162,14199365.105798256
4210,42005.811992983115
4236,231324094.5575093
4348,0.0
4473,237084.7233320473
2,3, 1, 3, 0,22, 0.00,60.00,Saturday
11,284851592.7425428
47,127949597.9999998
71,8533997.999999999
346,119415599.9999998
993,122688539.9999998
1017,122688539.9999998
1497,296365602.56832179
1533,0.0
1557,0.0
2228,4602495.001573849
2366,1995447.7909265867
4114,29282908.094217149
4126,14487417.026481722
4162,14199365.105798256
4210,53800.54879979213