Program Version,EnergyPlus, Version 9.0.1-bb7ca4f0da, YMD=2019.11.06 14:30
1,5,Environment Title[],Latitude[deg],Longitude[deg],Time Zone[],Elevation[m]
2,8,Day of Simulation[],Month[],Day of Month[],DST Indicator[1=yes 0=no],Hour[],StartMinute[],EndMinute[],DayType
3,5,Cumulative Day of Simulation[],Month[],Day of Month[],DST Indicator[1=yes 0=no],DayType  ! When Daily Meters Requested
4,2,Cumulative Days of Simulation[],Month[]  ! When Monthly Meters Requested
5,1,Cumulative Days of Simulation[] ! When Run Period Meters Requested
6,1,Calendar Year of Simulation[] ! When Annual Meters Requested
1068,1,Pumps:Electricity [J] !Hourly
913,1,Fans:Electricity [J] !Hourly
46,1,InteriorLights:Electricity [J] !Hourly
10,1,Electricity:Facility [J] !Hourly
183,1,InteriorEquipment:Electricity [J] !Hourly
1038,1,Heating:Electricity [J] !Hourly
967,1,Cooling:Electricity [J] !Hourly
333,1,WaterSystems:Electricity [J] !Hourly
1001,1,Gas:Facility [J] !Hourly
1025,1,Heating:Gas [J] !Hourly
207,1,Receptacle:InteriorEquipment:Electricity [J] !Hourly
70,1,ComplianceLtg:InteriorLights:Electricity [J] !Hourly
End of Data Dictionary
1,SACRAMENTO-EXECUTIVE-ARP ANN CLG 0.4% CONDNS DB=>MCWB,  38.50,-121.50,  -8.00,   5.00
2,1, 7,21, 0, 1, 0.00,60.00,SummerDesignDay
10,44873158.27987219
46,11884483.805759978
70,11884483.805759978
183,29711209.514399847
207,29711209.514399847
333,3277464.3023211748
913,0.6573911917738695
967,0.0
1001,0.0
1025,0.0
1038,0.0
1068,0.0
2,1, 7,21, 0, 2, 0.00,60.00,SummerDesignDay
10,45906328.73758128
46,11884483.805759978
70,11884483.805759978
183,29711209.514399847
207,29711209.514399847
333,3277540.8826854268
913,0.6573911917738695
967,1033093.8773448402
1001,0.0
1025,0.0
1038,0.0
1068,0.0
2,1, 7,21, 0, 3, 0.00,60.00,SummerDesignDay
10,46909995.56839188
46,11884483.805759978
70,11884483.805759978
183,29711209.514399847
207,29711209.514399847
333,3277368.5346681869
913,0.6573911917738695
967,2036933.0561726946
1001,0.0
1025,0.0
1038,0.0
1068,0.0
2,1, 7,21, 0, 4, 0.00,60.00,SummerDesignDay
10,47237789.78421885
46,11884483.805759978
70,11884483.805759978
183,29711209.514399847
207,29711209.514399847
333,3277249.1070149226
913,0.6573911917738695
967,2364846.6996529076
1001,0.0
1025,0.0
1038,0.0
1068,0.0
2,1, 7,21, 0, 5, 0.00,60.00,SummerDesignDay
10,47245280.25022309
46,11884483.805759978
70,11884483.805759978
183,29711209.514399847
207,29711209.514399847
333,3277469.795101026
913,0.6573911917738695
967,2372116.477571052
1001,0.0
1025,0.0
1038,0.0
1068,0.0
2,1, 7,21, 0, 6, 0.00,60.00,SummerDesignDay
10,69718213.47205432
46,11884483.805759978
70,11884483.805759978
183,29711209.514399847
207,29711209.514399847
333,3277699.165878601
913,16.424124025967545
967,24844804.56189187
1001,0.0
1025,0.0
1038,0.0
1068,0.0
2,1, 7,21, 0, 7, 0.00,60.00,SummerDesignDay
10,65323761.80077863
46,11884483.805759978
70,11884483.805759978
183,29711209.514399847
207,29711209.514399847
333,3277177.8308152819
913,16.28452527888147
967,20450874.36527825
1001,0.0
1025,0.0
1038,0.0
1068,0.0
2,1, 7,21, 0, 8, 0.00,60.00,SummerDesignDay
10,66513972.597813207
46,11884483.805759978
70,11884483.805759978
183,29711209.514399847
207,29711209.514399847
333,3277399.0739875466
913,16.232848991089484
967,21640863.970816837
1001,0.0
1025,0.0
1038,0.0
1068,0.0
2,1, 7,21, 0, 9, 0.00,60.00,SummerDesignDay
10,69213114.26608607
46,11884483.805759978
70,11884483.805759978
183,29711209.514399847
207,29711209.514399847
333,3277205.100142736
913,16.18136950569368
967,24340199.664414005
1001,0.0
1025,0.0
1038,0.0
1068,0.0
2,1, 7,21, 0,10, 0.00,60.00,SummerDesignDay
10,72434609.57687888
46,11884483.805759978
70,11884483.805759978
183,29711209.514399847
207,29711209.514399847
333,3277476.5499395837
913,16.126792474442135
967,27561423.579986987
1001,0.0
1025,0.0
1038,0.0
1068,0.0
2,1, 7,21, 0,11, 0.00,60.00,SummerDesignDay
10,75674983.20272881
46,11884483.805759978
70,11884483.805759978
183,29711209.514399847
207,29711209.514399847
333,3277750.4735096518
913,16.04814860444602
967,30801523.360910737
1001,0.0
1025,0.0
1038,0.0
1068,0.0
2,1, 7,21, 0,12, 0.00,60.00,SummerDesignDay
10,78855062.26651773
46,11884483.805759978
70,11884483.805759978
183,29711209.514399847
207,29711209.514399847
333,3605470.456304309
913,15.95639746605639
967,33653882.533656138
1001,0.0
1025,0.0
1038,0.0
1068,0.0
2,1, 7,21, 0,13, 0.00,60.00,SummerDesignDay
10,81488228.92402959
46,11884483.805759978
70,11884483.805759978
183,29711209.514399847
207,29711209.514399847
333,4017570.2912886368
913,15.978831273789393
967,35874949.33374986
1001,0.0
1025,0.0
1038,0.0
1068,0.0
2,1, 7,21, 0,14, 0.00,60.00,SummerDesignDay
10,82354662.68427345
46,11884483.805759978
70,11884483.805759978
183,29711209.514399847
207,29711209.514399847
333,3277333.8026087714
913,16.013430558402626
967,37481619.54807431
1001,0.0
1025,0.0
1038,0.0
1068,0.0
2,1, 7,21, 0,15, 0.00,60.00,SummerDesignDay
10,83309600.94479004
46,11884483.805759978
70,11884483.805759978
183,29711209.514399847
207,29711209.514399847
333,3277553.831758123
913,15.983429246989882
967,38436337.80944285
1001,0.0
1025,0.0
1038,0.0
1068,0.0
2,1, 7,21, 0,16, 0.00,60.00,SummerDesignDay
10,83066621.2828851
46,11884483.805759978
70,11884483.805759978
183,29711209.514399847
207,29711209.514399847
333,3277332.8075808838
913,15.953772488646955
967,38193579.20137191
1001,0.0
1025,0.0
1038,0.0
1068,0.0
2,1, 7,21, 0,17, 0.00,60.00,SummerDesignDay
10,81779270.33852612
46,11884483.805759978
70,11884483.805759978
183,29711209.514399847
207,29711209.514399847
333,3277262.1512166445
913,15.925167476151538
967,36906298.94198217
1001,0.0
1025,0.0
1038,0.0
1068,0.0
2,1, 7,21, 0,18, 0.00,60.00,SummerDesignDay
10,79678097.58239037
46,11884483.805759978
70,11884483.805759978
183,29711209.514399847
207,29711209.514399847
333,3277482.7377916837
913,15.892320008023642
967,34804905.63211886
1001,0.0
1025,0.0
1038,0.0
1068,0.0
2,1, 7,21, 0,19, 0.00,60.00,SummerDesignDay
10,76388230.05767448
46,11884483.805759978
70,11884483.805759978
183,29711209.514399847
207,29711209.514399847
333,3277250.7541386939
913,15.848870249068977
967,31515270.134505724
1001,0.0
1025,0.0
1038,0.0
1068,0.0
2,1, 7,21, 0,20, 0.00,60.00,SummerDesignDay
10,72784975.78849608
46,11884483.805759978
70,11884483.805759978
183,29711209.514399847
207,29711209.514399847
333,3277554.5225293899
913,15.753368529712566
967,27911712.192438336
1001,0.0
1025,0.0
1038,0.0
1068,0.0
2,1, 7,21, 0,21, 0.00,60.00,SummerDesignDay
10,70055636.81082592
46,11884483.805759978
70,11884483.805759978
183,29711209.514399847
207,29711209.514399847
333,3277809.166182088
913,15.609557099531518
967,25182118.714926904
1001,0.0
1025,0.0
1038,0.0
1068,0.0
2,1, 7,21, 0,22, 0.00,60.00,SummerDesignDay
10,67888290.31335892
46,11884483.805759978
70,11884483.805759978
183,29711209.514399847
207,29711209.514399847
333,3277171.50013348
913,15.549478877677834
967,23015409.943586735
1001,0.0
1025,0.0
1038,0.0
1068,0.0
2,1, 7,21, 0,23, 0.00,60.00,SummerDesignDay
10,66177051.19652607
46,11884483.805759978
70,11884483.805759978
183,29711209.514399847
207,29711209.514399847
333,3277120.9235784357
913,15.500700252053747
967,21304221.452087564
1001,0.0
1025,0.0
1038,0.0
1068,0.0
2,1, 7,21, 0,24, 0.00,60.00,SummerDesignDay
10,64747544.74992653
46,11884483.805759978
70,11884483.805759978
183,29711209.514399847
207,29711209.514399847
333,3277342.610193262
913,15.452090450701015
967,19874493.367483
1001,0.0
1025,0.0
1038,0.0
1068,0.0
1,SACRAMENTO-EXECUTIVE-ARP ANN CLG 0.4% CONDNS DP=>MCDB,  38.50,-121.50,  -8.00,   5.00
2,1, 7,21, 0, 1, 0.00,60.00,SummerDesignDay
10,44873542.544239718
46,11884483.805759978
70,11884483.805759978
183,29711209.514399847
207,29711209.514399847
333,3277848.5666887008
913,0.6573911917738695
967,0.0
1001,0.0
1025,0.0
1038,0.0
1068,0.0
2,1, 7,21, 0, 2, 0.00,60.00,SummerDesignDay
10,44873234.37768993
46,11884483.805759978
70,11884483.805759978
183,29711209.514399847
207,29711209.514399847
333,3277540.400138909
913,0.6573911917738695
967,0.0
1001,142991.80560166186
1025,142991.80560166186
1038,0.0
1068,0.0
2,1, 7,21, 0, 3, 0.00,60.00,SummerDesignDay
10,44873063.91344355
46,11884483.805759978
70,11884483.805759978
183,29711209.514399847
207,29711209.514399847
333,3277369.9358925374
913,0.6573911917738695
967,0.0
1001,1529124.7242169665
1025,1529124.7242169665
1038,0.0
1068,0.0
2,1, 7,21, 0, 4, 0.00,60.00,SummerDesignDay
10,44872942.59847948
46,11884483.805759978
70,11884483.805759978
183,29711209.514399847
207,29711209.514399847
333,3277248.620928465
913,0.6573911917738695
967,0.0
1001,3059319.627432547
1025,3059319.627432547
1038,0.0
1068,0.0
2,1, 7,21, 0, 5, 0.00,60.00,SummerDesignDay
10,44873163.29034875
46,11884483.805759978
70,11884483.805759978
183,29711209.514399847
207,29711209.514399847
333,3277469.3127977417
913,0.6573911917738695
967,0.0
1001,4269610.499851091
1025,4269610.499851091
1038,0.0
1068,0.0
2,1, 7,21, 0, 6, 0.00,60.00,SummerDesignDay
10,57942217.28104633
46,11884483.805759978
70,11884483.805759978
183,29711209.514399847
207,29711209.514399847
333,3277741.714783124
913,14.89361836053773
967,13068767.352485028
1001,136792.02401131969
1025,136792.02401131969
1038,0.0
1068,0.0
2,1, 7,21, 0, 7, 0.00,60.00,SummerDesignDay
10,55512264.84128024
46,11884483.805759978
70,11884483.805759978
183,29711209.514399847
207,29711209.514399847
333,3277176.914438679
913,14.814967620138545
967,10639379.791714117
1001,0.0
1025,0.0
1038,0.0
1068,0.0
2,1, 7,21, 0, 8, 0.00,60.00,SummerDesignDay
10,57461530.560835208
46,11884483.805759978
70,11884483.805759978
183,29711209.514399847
207,29711209.514399847
333,3277398.164752137
913,14.764284010462723
967,12588424.311639237
1001,0.0
1025,0.0
1038,0.0
1068,0.0
2,1, 7,21, 0, 9, 0.00,60.00,SummerDesignDay
10,61167407.985805157
46,11884483.805759978
70,11884483.805759978
183,29711209.514399847
207,29711209.514399847
333,3277207.6174665328
913,14.712908182163082
967,16294492.335270606
1001,0.0
1025,0.0
1038,0.0
1068,0.0
2,1, 7,21, 0,10, 0.00,60.00,SummerDesignDay
10,64699770.14338929
46,11884483.805759978
70,11884483.805759978
183,29711209.514399847
207,29711209.514399847
333,3277839.5277616709
913,14.64256398502662
967,19826222.65290381
1001,0.0
1025,0.0
1038,0.0
1068,0.0
2,1, 7,21, 0,11, 0.00,60.00,SummerDesignDay
10,67783936.693423
46,11884483.805759978
70,11884483.805759978
183,29711209.514399847
207,29711209.514399847
333,3277752.6731212458
913,14.511376362173366
967,22910476.188765564
1001,0.0
1025,0.0
1038,0.0
1068,0.0
2,1, 7,21, 0,12, 0.00,60.00,SummerDesignDay
10,70474518.9955258
46,11884483.805759978
70,11884483.805759978
183,29711209.514399847
207,29711209.514399847
333,3599090.419354657
913,14.371451602195063
967,25279720.884559715
1001,0.0
1025,0.0
1038,0.0
1068,0.0
2,1, 7,21, 0,13, 0.00,60.00,SummerDesignDay
10,72765489.23920745
46,11884483.805759978
70,11884483.805759978
183,29711209.514399847
207,29711209.514399847
333,4024318.5950892588
913,14.301256086744245
967,27145463.02270228
1001,0.0
1025,0.0
1038,0.0
1068,0.0
2,1, 7,21, 0,14, 0.00,60.00,SummerDesignDay
10,73534707.41753099
46,11884483.805759978
70,11884483.805759978
183,29711209.514399847
207,29711209.514399847
333,3277331.9103054294
913,14.253803485376814
967,28661667.93326225
1001,0.0
1025,0.0
1038,0.0
1068,0.0
2,1, 7,21, 0,15, 0.00,60.00,SummerDesignDay
10,74468228.33386505
46,11884483.805759978
70,11884483.805759978
183,29711209.514399847
207,29711209.514399847
333,3277551.954160731
913,14.206686352512654
967,29594968.85285814
1001,0.0
1025,0.0
1038,0.0
1068,0.0
2,1, 7,21, 0,16, 0.00,60.00,SummerDesignDay
10,74209422.67554218
46,11884483.805759978
70,11884483.805759978
183,29711209.514399847
207,29711209.514399847
333,3277337.7638909725
913,14.29666550050754
967,29336377.294825876
1001,0.0
1025,0.0
1038,0.0
1068,0.0
2,1, 7,21, 0,17, 0.00,60.00,SummerDesignDay
10,72990400.12322502
46,11884483.805759978
70,11884483.805759978
183,29711209.514399847
207,29711209.514399847
333,3277260.2598096218
913,14.452579639328299
967,28117432.090675944
1001,0.0
1025,0.0
1038,0.0
1068,0.0
2,1, 7,21, 0,18, 0.00,60.00,SummerDesignDay
10,71164942.48816905
46,11884483.805759978
70,11884483.805759978
183,29711209.514399847
207,29711209.514399847
333,3277480.861102313
913,14.433625457683487
967,26291753.873281447
1001,0.0
1025,0.0
1038,0.0
1068,0.0
2,1, 7,21, 0,19, 0.00,60.00,SummerDesignDay
10,68403895.85359209
46,11884483.805759978
70,11884483.805759978
183,29711209.514399847
207,29711209.514399847
333,3277255.5681512944
913,14.381422570330259
967,23530932.583858409
1001,0.0
1025,0.0
1038,0.0
1068,0.0
2,1, 7,21, 0,20, 0.00,60.00,SummerDesignDay
10,65312345.73627532
46,11884483.805759978
70,11884483.805759978
183,29711209.514399847
207,29711209.514399847
333,3277558.4539109414
913,14.288780919218479
967,20439079.67342364
1001,0.0
1025,0.0
1038,0.0
1068,0.0
2,1, 7,21, 0,21, 0.00,60.00,SummerDesignDay
10,63033593.55299397
46,11884483.805759978
70,11884483.805759978
183,29711209.514399847
207,29711209.514399847
333,3277810.6382943915
913,14.17598120545298
967,18160075.418558558
1001,0.0
1025,0.0
1038,0.0
1068,0.0
2,1, 7,21, 0,22, 0.00,60.00,SummerDesignDay
10,60998149.96860732
46,11884483.805759978
70,11884483.805759978
183,29711209.514399847
207,29711209.514399847
333,3277174.3084995017
913,14.123852450650763
967,16125268.216095537
1001,0.0
1025,0.0
1038,0.0
1068,0.0
2,1, 7,21, 0,23, 0.00,60.00,SummerDesignDay
10,59000775.71390181
46,11884483.805759978
70,11884483.805759978
183,29711209.514399847
207,29711209.514399847
333,3277119.790913066
913,14.07859399566239
967,14127948.524234925
1001,0.0
1025,0.0
1038,0.0
1068,0.0
2,1, 7,21, 0,24, 0.00,60.00,SummerDesignDay
10,57250396.1966792
46,11884483.805759978
70,11884483.805759978
183,29711209.514399847
207,29711209.514399847
333,3277341.4863634246
913,14.033304268583402
967,12377347.356851682
1001,0.0
1025,0.0
1038,0.0
1068,0.0
1,SACRAMENTO-EXECUTIVE-ARP ANN HTG 99.6% CONDNS DB,  38.50,-121.50,  -8.00,   5.00
2,1, 1,21, 0, 1, 0.00,60.00,WinterDesignDay
10,72000.65739119178
46,0.0
70,0.0
183,0.0
207,0.0
333,72000.0
913,0.6573911917738695
967,0.0
1001,48044369.58958373
1025,48044369.58958373
1038,0.0
1068,0.0
2,1, 1,21, 0, 2, 0.00,60.00,WinterDesignDay
10,72000.65739119178
46,0.0
70,0.0
183,0.0
207,0.0
333,72000.0
913,0.6573911917738695
967,0.0
1001,56798845.40136038
1025,56798845.40136038
1038,0.0
1068,0.0
2,1, 1,21, 0, 3, 0.00,60.00,WinterDesignDay
10,72000.65739119178
46,0.0
70,0.0
183,0.0
207,0.0
333,72000.0
913,0.6573911917738695
967,0.0
1001,59846416.52877532
1025,59846416.52877532
1038,0.0
1068,0.0
2,1, 1,21, 0, 4, 0.00,60.00,WinterDesignDay
10,72000.65739119178
46,0.0
70,0.0
183,0.0
207,0.0
333,72000.0
913,0.6573911917738695
967,0.0
1001,61976064.54300782
1025,61976064.54300782
1038,0.0
1068,0.0
2,1, 1,21, 0, 5, 0.00,60.00,WinterDesignDay
10,72000.65739119178
46,0.0
70,0.0
183,0.0
207,0.0
333,72000.0
913,0.6573911917738695
967,0.0
1001,63414656.76873792
1025,63414656.76873792
1038,0.0
1068,0.0
2,1, 1,21, 0, 6, 0.00,60.00,WinterDesignDay
10,72000.65739119178
46,0.0
70,0.0
183,0.0
207,0.0
333,72000.0
913,0.6573911917738695
967,0.0
1001,102497354.02666313
1025,102497354.02666313
1038,0.0
1068,0.0
2,1, 1,21, 0, 7, 0.00,60.00,WinterDesignDay
10,72000.65739119178
46,0.0
70,0.0
183,0.0
207,0.0
333,72000.0
913,0.6573911917738695
967,0.0
1001,102497344.98756036
1025,102497344.98756036
1038,0.0
1068,0.0
2,1, 1,21, 0, 8, 0.00,60.00,WinterDesignDay
10,72000.65739119178
46,0.0
70,0.0
183,0.0
207,0.0
333,72000.0
913,0.6573911917738695
967,0.0
1001,102497342.26987958
1025,102497342.26987958
1038,0.0
1068,0.0
2,1, 1,21, 0, 9, 0.00,60.00,WinterDesignDay
10,72000.65739119178
46,0.0
70,0.0
183,0.0
207,0.0
333,72000.0
913,0.6573911917738695
967,0.0
1001,102497340.71784476
1025,102497340.71784476
1038,0.0
1068,0.0
2,1, 1,21, 0,10, 0.00,60.00,WinterDesignDay
10,72000.65739119178
46,0.0
70,0.0
183,0.0
207,0.0
333,72000.0
913,0.6573911917738695
967,0.0
1001,102497339.78139586
1025,102497339.78139586
1038,0.0
1068,0.0
2,1, 1,21, 0,11, 0.00,60.00,WinterDesignDay
10,72000.65739119178
46,0.0
70,0.0
183,0.0
207,0.0
333,72000.0
913,0.6573911917738695
967,0.0
1001,102497339.16411069
1025,102497339.16411069
1038,0.0
1068,0.0
2,1, 1,21, 0,12, 0.00,60.00,WinterDesignDay
10,72000.65739119178
46,0.0
70,0.0
183,0.0
207,0.0
333,72000.0
913,0.6573911917738695
967,0.0
1001,102497338.7184956
1025,102497338.7184956
1038,0.0
1068,0.0
2,1, 1,21, 0,13, 0.00,60.00,WinterDesignDay
10,72000.65739119178
46,0.0
70,0.0
183,0.0
207,0.0
333,72000.0
913,0.6573911917738695
967,0.0
1001,102497338.36882642
1025,102497338.36882642
1038,0.0
1068,0.0
2,1, 1,21, 0,14, 0.00,60.00,WinterDesignDay
10,72000.65739119178
46,0.0
70,0.0
183,0.0
207,0.0
333,72000.0
913,0.6573911917738695
967,0.0
1001,102497338.07851264
1025,102497338.07851264
1038,0.0
1068,0.0
2,1, 1,21, 0,15, 0.00,60.00,WinterDesignDay
10,72000.65739119178
46,0.0
70,0.0
183,0.0
207,0.0
333,72000.0
913,0.6573911917738695
967,0.0
1001,102497337.82062863
1025,102497337.82062863
1038,0.0
1068,0.0
2,1, 1,21, 0,16, 0.00,60.00,WinterDesignDay
10,72000.65739119178
46,0.0
70,0.0
183,0.0
207,0.0
333,72000.0
913,0.6573911917738695
967,0.0
1001,102497337.58233124
1025,102497337.58233124
1038,0.0
1068,0.0
2,1, 1,21, 0,17, 0.00,60.00,WinterDesignDay
10,72000.65739119178
46,0.0
70,0.0
183,0.0
207,0.0
333,72000.0
913,0.6573911917738695
967,0.0
1001,102497337.35745017
1025,102497337.35745017
1038,0.0
1068,0.0
2,1, 1,21, 0,18, 0.00,60.00,WinterDesignDay
10,72000.65739119178
46,0.0
70,0.0
183,0.0
207,0.0
333,72000.0
913,0.6573911917738695
967,0.0
1001,102497337.14228794
1025,102497337.14228794
1038,0.0
1068,0.0
2,1, 1,21, 0,19, 0.00,60.00,WinterDesignDay
10,72000.65739119178
46,0.0
70,0.0
183,0.0
207,0.0
333,72000.0
913,0.6573911917738695
967,0.0
1001,102497336.9345266
1025,102497336.9345266
1038,0.0
1068,0.0
2,1, 1,21, 0,20, 0.00,60.00,WinterDesignDay
10,72000.65739119178
46,0.0
70,0.0
183,0.0
207,0.0
333,72000.0
913,0.6573911917738695
967,0.0
1001,102497336.73266444
1025,102497336.73266444
1038,0.0
1068,0.0
2,1, 1,21, 0,21, 0.00,60.00,WinterDesignDay
10,72000.65739119178
46,0.0
70,0.0
183,0.0
207,0.0
333,72000.0
913,0.6573911917738695
967,0.0
1001,102497336.53569997
1025,102497336.53569997
1038,0.0
1068,0.0
2,1, 1,21, 0,22, 0.00,60.00,WinterDesignDay
10,72000.65739119178
46,0.0
70,0.0
183,0.0
207,0.0
333,72000.0
913,0.6573911917738695
967,0.0
1001,102497336.34295006
1025,102497336.34295006
1038,0.0
1068,0.0
2,1, 1,21, 0,23, 0.00,60.00,WinterDesignDay
10,72000.65739119178
46,0.0
70,0.0
183,0.0
207,0.0
333,72000.0
913,0.6573911917738695
967,0.0
1001,102497336.15393836
1025,102497336.15393836
1038,0.0
1068,0.0
2,1, 1,21, 0,24, 0.00,60.00,WinterDesignDay
10,72000.65739119178
46,0.0
70,0.0
183,0.0
207,0.0
333,72000.0
913,0.6573911917738695
967,0.0
1001,102497335.96832696
1025,102497335.96832696
1038,0.0
1068,0.0
1,SACRAMENTO-EXECUTIVE-ARP AUG CLG 0.4% CONDNS DB=>MCWB,  38.50,-121.50,  -8.00,   5.00
2,1, 8,21, 0, 1, 0.00,60.00,SummerDesignDay
10,44867514.9733467
46,11884483.805759978
70,11884483.805759978
183,29711209.514399847
207,29711209.514399847
333,3271820.99579569
913,0.6573911917738695
967,0.0
1001,0.0
1025,0.0
1038,0.0
1068,0.0
2,1, 8,21, 0, 2, 0.00,60.00,SummerDesignDay
10,46839151.52884205
46,11884483.805759978
70,11884483.805759978
183,29711209.514399847
207,29711209.514399847
333,3271792.985727034
913,0.6573989000145755
967,1971664.5655562964
1001,0.0
1025,0.0
1038,0.0
1068,0.0
2,1, 8,21, 0, 3, 0.00,60.00,SummerDesignDay
10,48163074.096107099
46,11884483.805759978
70,11884483.805759978
183,29711209.514399847
207,29711209.514399847
333,3271897.242417695
913,0.6573911917738695
967,3295482.8761383888
1001,0.0
1025,0.0
1038,0.0
1068,0.0
2,1, 8,21, 0, 4, 0.00,60.00,SummerDesignDay
10,48393602.96916648
46,11884483.805759978
70,11884483.805759978
183,29711209.514399847
207,29711209.514399847
333,3272000.930753064
913,0.6573911917738695
967,3525908.0608624035
1001,0.0
1025,0.0
1038,0.0
1068,0.0
2,1, 8,21, 0, 5, 0.00,60.00,SummerDesignDay
10,48351781.32831952
46,11884483.805759978
70,11884483.805759978
183,29711209.514399847
207,29711209.514399847
333,3271961.286662466
913,0.6573911917738695
967,3484126.064106037
1001,0.0
1025,0.0
1038,0.0
1068,0.0
2,1, 8,21, 0, 6, 0.00,60.00,SummerDesignDay
10,71098011.89446002
46,11884483.805759978
70,11884483.805759978
183,29711209.514399847
207,29711209.514399847
333,3271819.5872034479
913,16.406833970443654
967,26230482.580262785
1001,0.0
1025,0.0
1038,0.0
1068,0.0
2,1, 8,21, 0, 7, 0.00,60.00,SummerDesignDay
10,66402858.59325266
46,11884483.805759978
70,11884483.805759978
183,29711209.514399847
207,29711209.514399847
333,3271584.7692028826
913,16.2527591338315
967,21535564.251130813
1001,0.0
1025,0.0
1038,0.0
1068,0.0
2,1, 8,21, 0, 8, 0.00,60.00,SummerDesignDay
10,67650975.7361263
46,11884483.805759978
70,11884483.805759978
183,29711209.514399847
207,29711209.514399847
333,3271698.4221739268
913,16.200704132369233
967,22783567.793088426
1001,0.0
1025,0.0
1038,0.0
1068,0.0
2,1, 8,21, 0, 9, 0.00,60.00,SummerDesignDay
10,70663575.96380253
46,11884483.805759978
70,11884483.805759978
183,29711209.514399847
207,29711209.514399847
333,3271803.1957274975
913,16.14911086264803
967,25796063.29880434
1001,0.0
1025,0.0
1038,0.0
1068,0.0
2,1, 8,21, 0,10, 0.00,60.00,SummerDesignDay
10,74317931.62318549
46,11884483.805759978
70,11884483.805759978
183,29711209.514399847
207,29711209.514399847
333,3271847.8247748899
913,16.086393286243909
967,29450374.39185748
1001,0.0
1025,0.0
1038,0.0
1068,0.0
2,1, 8,21, 0,11, 0.00,60.00,SummerDesignDay
10,77980194.48941693
46,11884483.805759978
70,11884483.805759978
183,29711209.514399847
207,29711209.514399847
333,3272370.6506275248
913,15.996883576844349
967,33112114.52174601
1001,0.0
1025,0.0
1038,0.0
1068,0.0
2,1, 8,21, 0,12, 0.00,60.00,SummerDesignDay
10,81008424.90139984
46,11884483.805759978
70,11884483.805759978
183,29711209.514399847
207,29711209.514399847
333,3272211.4514643198
913,16.08069873953434
967,36140504.04907693
1001,0.0
1025,0.0
1038,0.0
1068,0.0
2,1, 8,21, 0,13, 0.00,60.00,SummerDesignDay
10,82783525.10214386
46,11884483.805759978
70,11884483.805759978
183,29711209.514399847
207,29711209.514399847
333,3271558.623801946
913,16.173529835786469
967,37916256.98465224
1001,0.0
1025,0.0
1038,0.0
1068,0.0
2,1, 8,21, 0,14, 0.00,60.00,SummerDesignDay
10,84228241.04891056
46,11884483.805759978
70,11884483.805759978
183,29711209.514399847
207,29711209.514399847
333,3271595.551726861
913,16.253967541030457
967,39360935.92305636
1001,0.0
1025,0.0
1038,0.0
1068,0.0
2,1, 8,21, 0,15, 0.00,60.00,SummerDesignDay
10,85174275.19916012
46,11884483.805759978
70,11884483.805759978
183,29711209.514399847
207,29711209.514399847
333,3271709.425728403
913,16.2459708751376
967,40306856.20730101
1001,0.0
1025,0.0
1038,0.0
1068,0.0
2,1, 8,21, 0,16, 0.00,60.00,SummerDesignDay
10,85074864.38406705
46,11884483.805759978
70,11884483.805759978
183,29711209.514399847
207,29711209.514399847
333,3271814.1390813288
913,16.23150692030153
967,40207340.69331896
1001,0.0
1025,0.0
1038,0.0
1068,0.0
2,1, 8,21, 0,17, 0.00,60.00,SummerDesignDay
10,83942951.46646974
46,11884483.805759978
70,11884483.805759978
183,29711209.514399847
207,29711209.514399847
333,3271918.280387861
913,16.211692287117214
967,39075323.65422976
1001,0.0
1025,0.0
1038,0.0
1068,0.0
2,1, 8,21, 0,18, 0.00,60.00,SummerDesignDay
10,81722426.38356242
46,11884483.805759978
70,11884483.805759978
183,29711209.514399847
207,29711209.514399847
333,3271947.722768296
913,16.184624815707914
967,36854769.15600948
1001,0.0
1025,0.0
1038,0.0
1068,0.0
2,1, 8,21, 0,19, 0.00,60.00,SummerDesignDay
10,78113153.66162542
46,11884483.805759978
70,11884483.805759978
183,29711209.514399847
207,29711209.514399847
333,3271755.459318904
913,16.14164761504573
967,33245688.74049908
1001,0.0
1025,0.0
1038,0.0
1068,0.0
2,1, 8,21, 0,20, 0.00,60.00,SummerDesignDay
10,74398920.89067441
46,11884483.805759978
70,11884483.805759978
183,29711209.514399847
207,29711209.514399847
333,3272141.5011491209
913,16.006568400686076
967,29531070.062797067
1001,0.0
1025,0.0
1038,0.0
1068,0.0
2,1, 8,21, 0,21, 0.00,60.00,SummerDesignDay
10,71653338.40204695
46,11884483.805759978
70,11884483.805759978
183,29711209.514399847
207,29711209.514399847
333,3271615.0726335125
913,15.87430552210234
967,26786014.134948087
1001,0.0
1025,0.0
1038,0.0
1068,0.0
2,1, 8,21, 0,22, 0.00,60.00,SummerDesignDay
10,69467365.60882814
46,11884483.805759978
70,11884483.805759978
183,29711209.514399847
207,29711209.514399847
333,3271720.551423219
913,15.822784605662469
967,24599935.914460496
1001,0.0
1025,0.0
1038,0.0
1068,0.0
2,1, 8,21, 0,23, 0.00,60.00,SummerDesignDay
10,67691004.47397465
46,11884483.805759978
70,11884483.805759978
183,29711209.514399847
207,29711209.514399847
333,3271825.203870205
913,15.77330423409154
967,22823470.176640385
1001,0.0
1025,0.0
1038,0.0
1068,0.0
2,1, 8,21, 0,24, 0.00,60.00,SummerDesignDay
10,66185356.99361317
46,11884483.805759978
70,11884483.805759978
183,29711209.514399847
207,29711209.514399847
333,3271929.28476395
913,15.72403097011074
967,21317718.66465844
1001,0.0
1025,0.0
1038,0.0
1068,0.0
1,SACRAMENTO-EXECUTIVE-ARP JUL CLG 0.4% CONDNS DB=>MCWB,  38.50,-121.50,  -8.00,   5.00
2,1, 7,21, 0, 1, 0.00,60.00,SummerDesignDay
10,45551533.32490413
46,11884483.805759978
70,11884483.805759978
183,29711209.514399847
207,29711209.514399847
333,3277454.4207230817
913,0.6573911917738695
967,678384.9266300364
1001,0.0
1025,0.0
1038,0.0
1068,0.0
2,1, 7,21, 0, 2, 0.00,60.00,SummerDesignDay
10,51196106.748937088
46,11884483.805759978
70,11884483.805759978
183,29711209.514399847
207,29711209.514399847
333,3277541.3612372607
913,0.6573911917738695
967,6322871.410148818
1001,0.0
1025,0.0
1038,0.0
1068,0.0
2,1, 7,21, 0, 3, 0.00,60.00,SummerDesignDay
10,52042828.789543349
46,11884483.805759978
70,11884483.805759978
183,29711209.514399847
207,29711209.514399847
333,3277367.1500003559
913,0.6573911917738695
967,7169767.6619919729
1001,0.0
1025,0.0
1038,0.0
1068,0.0
2,1, 7,21, 0, 4, 0.00,60.00,SummerDesignDay
10,52099383.16029252
46,11884483.805759978
70,11884483.805759978
183,29711209.514399847
207,29711209.514399847
333,3277249.589077779
913,0.6573911917738695
967,7226439.5936637329
1001,0.0
1025,0.0
1038,0.0
1068,0.0
2,1, 7,21, 0, 5, 0.00,60.00,SummerDesignDay
10,52002506.64999986
46,11884483.805759978
70,11884483.805759978
183,29711209.514399847
207,29711209.514399847
333,3277470.273411993
913,0.6573911917738695
967,7129342.399036853
1001,0.0
1025,0.0
1038,0.0
1068,0.0
2,1, 7,21, 0, 6, 0.00,60.00,SummerDesignDay
10,72155394.56337457
46,11884483.805759978
70,11884483.805759978
183,29711209.514399847
207,29711209.514399847
333,3277699.095487548
913,16.470950737359745
967,27281985.676776466
1001,0.0
1025,0.0
1038,0.0
1068,0.0
2,1, 7,21, 0, 7, 0.00,60.00,SummerDesignDay
10,68541385.29630479
46,11884483.805759978
70,11884483.805759978
183,29711209.514399847
207,29711209.514399847
333,3277178.3106486287
913,16.37555422066033
967,23668497.289942128
1001,0.0
1025,0.0
1038,0.0
1068,0.0
2,1, 7,21, 0, 8, 0.00,60.00,SummerDesignDay
10,69959012.59894657
46,11884483.805759978
70,11884483.805759978
183,29711209.514399847
207,29711209.514399847
333,3277399.5500816886
913,16.323748384282394
967,25085903.404956685
1001,0.0
1025,0.0
1038,0.0
1068,0.0
2,1, 7,21, 0, 9, 0.00,60.00,SummerDesignDay
10,73072661.96207471
46,11884483.805759978
70,11884483.805759978
183,29711209.514399847
207,29711209.514399847
333,3277203.789055201
913,16.288646827252199
967,28199748.564212856
1001,0.0
1025,0.0
1038,0.0
1068,0.0
2,1, 7,21, 0,10, 0.00,60.00,SummerDesignDay
10,76619268.86345218
46,11884483.805759978
70,11884483.805759978
183,29711209.514399847
207,29711209.514399847
333,3277477.5370532006
913,16.24508525743886
967,31746081.761153908
1001,0.0
1025,0.0
1038,0.0
1068,0.0
2,1, 7,21, 0,11, 0.00,60.00,SummerDesignDay
10,80121623.5373491
46,11884483.805759978
70,11884483.805759978
183,29711209.514399847
207,29711209.514399847
333,3277749.339501242
913,16.216823128869654
967,35248164.660864908
1001,0.0
1025,0.0
1038,0.0
1068,0.0
2,1, 7,21, 0,12, 0.00,60.00,SummerDesignDay
10,83153983.12409809
46,11884483.805759978
70,11884483.805759978
183,29711209.514399847
207,29711209.514399847
333,3608166.360145577
913,16.24588242043625
967,37950107.197910267
1001,0.0
1025,0.0
1038,0.0
1068,0.0
2,1, 7,21, 0,13, 0.00,60.00,SummerDesignDay
10,85285003.71645132
46,11884483.805759978
70,11884483.805759978
183,29711209.514399847
207,29711209.514399847
333,4014873.3806036349
913,16.32909735837554
967,39674420.6865905
1001,0.0
1025,0.0
1038,0.0
1068,0.0
2,1, 7,21, 0,14, 0.00,60.00,SummerDesignDay
10,85932167.14300512
46,11884483.805759978
70,11884483.805759978
183,29711209.514399847
207,29711209.514399847
333,3277334.5588408706
913,16.365808898152637
967,41059122.89819552
1001,0.0
1025,0.0
1038,0.0
1068,0.0
2,1, 7,21, 0,15, 0.00,60.00,SummerDesignDay
10,86805165.96966306
46,11884483.805759978
70,11884483.805759978
183,29711209.514399847
207,29711209.514399847
333,3277554.582113351
913,16.4332718135646
967,41931901.634118068
1001,0.0
1025,0.0
1038,0.0
1068,0.0
2,1, 7,21, 0,16, 0.00,60.00,SummerDesignDay
10,86675367.68469662
46,11884483.805759978
70,11884483.805759978
183,29711209.514399847
207,29711209.514399847
333,3277330.8481183878
913,16.506346153784233
967,41802327.010072249
1001,0.0
1025,0.0
1038,0.0
1068,0.0
2,1, 7,21, 0,17, 0.00,60.00,SummerDesignDay
10,85710387.42466372
46,11884483.805759978
70,11884483.805759978
183,29711209.514399847
207,29711209.514399847
333,3277262.907092168
913,16.529913064692225
967,40837414.66749868
1001,0.0
1025,0.0
1038,0.0
1068,0.0
2,1, 7,21, 0,18, 0.00,60.00,SummerDesignDay
10,84201685.86400303
46,11884483.805759978
70,11884483.805759978
183,29711209.514399847
207,29711209.514399847
333,3277483.4877856427
913,16.516977907815606
967,39328492.53907965
1001,0.0
1025,0.0
1038,0.0
1068,0.0
2,1, 7,21, 0,19, 0.00,60.00,SummerDesignDay
10,81029617.69823218
46,11884483.805759978
70,11884483.805759978
183,29711209.514399847
207,29711209.514399847
333,3277248.851407585
913,16.484878604938517