Program Version,EnergyPlus, Version 9.0.1-bb7ca4f0da, YMD=2019.12.13 16:23
1,5,Environment Title[],Latitude[deg],Longitude[deg],Time Zone[],Elevation[m]
2,8,Day of Simulation[],Month[],Day of Month[],DST Indicator[1=yes 0=no],Hour[],StartMinute[],EndMinute[],DayType
3,5,Cumulative Day of Simulation[],Month[],Day of Month[],DST Indicator[1=yes 0=no],DayType  ! When Daily Meters Requested
4,2,Cumulative Days of Simulation[],Month[]  ! When Monthly Meters Requested
5,1,Cumulative Days of Simulation[] ! When Run Period Meters Requested
6,1,Calendar Year of Simulation[] ! When Annual Meters Requested
4480,1,Pumps:Electricity [J] !Hourly
4354,1,Cooling:Electricity [J] !Hourly
46,1,InteriorLights:Electricity [J] !Hourly
10,1,Electricity:Facility [J] !Hourly
992,1,InteriorEquipment:Electricity [J] !Hourly
1496,1,Gas:Facility [J] !Hourly
4121,1,Fans:Electricity [J] !Hourly
4243,1,Heating:Electricity [J] !Hourly
4230,1,Heating:Gas [J] !Hourly
2227,1,WaterSystems:Electricity [J] !Hourly
1532,1,InteriorEquipment:Gas [J] !Hourly
2365,1,WaterSystems:Gas [J] !Hourly
1016,1,Receptacle:InteriorEquipment:Electricity [J] !Hourly
1556,1,Receptacle:InteriorEquipment:Gas [J] !Hourly
70,1,ComplianceLtg:InteriorLights:Electricity [J] !Hourly
345,1,NonComplianceLtg:InteriorLights:Electricity [J] !Hourly
4133,1,General:Fans:Electricity [J] !Hourly
4170,1,ProcessMotors:Fans:Electricity [J] !Hourly
End of Data Dictionary
1,OAKLAND-METROPOLITAN-ARP ANN CLG 0.4% CONDNS DB=>MCWB,  37.72,-122.22,  -8.00,   2.00
2,1, 9,21, 0, 1, 0.00,60.00,SummerDesignDay
10,641911339.3210676
46,249737579.99999974
70,96701579.99999997
345,153035999.9999997
992,231449399.99999977
1016,231449399.99999977
1496,64360020.34773086
1532,57764642.17263899
1556,57764642.17263899
2227,19280840.25051644
2365,6595378.175091874
4121,229.57712051704116
4133,40.46829015675122
4170,146.49394504991597
4230,0.0
4243,0.0
4354,141443289.49343059
4480,0.0
2,1, 9,21, 0, 2, 0.00,60.00,SummerDesignDay
10,636401491.8239312
46,249737579.99999974
70,96701579.99999997
345,153035999.9999997
992,231449399.99999977
1016,231449399.99999977
1496,64360532.51846233
1532,57764642.17263899
1556,57764642.17263899
2227,19280413.725060356
2365,6595890.345823347
4121,228.41071652954293
4133,40.47494007154269
4170,146.49394504991597
4230,0.0
4243,0.0
4354,135933869.68815444
4480,0.0
2,1, 9,21, 0, 3, 0.00,60.00,SummerDesignDay
10,632684655.9901292
46,249737579.99999974
70,96701579.99999997
345,153035999.9999997
992,231449399.99999977
1016,231449399.99999977
1496,64487329.6143424
1532,57764642.17263899
1556,57764642.17263899
2227,19281103.501465918
2365,6722687.441703414
4121,227.67633011294257
4133,40.48049530672338
4170,146.49394504991597
4230,0.0
4243,0.0
4354,132216344.81233317
4480,0.0
2,1, 9,21, 0, 4, 0.00,60.00,SummerDesignDay
10,630350310.9332537
46,249737579.99999974
70,96701579.99999997
345,153035999.9999997
992,231449399.99999977
1016,231449399.99999977
1496,64573696.50082809
1532,57764642.17263899
1556,57764642.17263899
2227,20222195.78974481
2365,6809054.328189099
4121,227.03398635403438
4133,40.486131167616189
4170,146.49394504991597
4230,0.0
4243,0.0
4354,128940908.10952249
4480,0.0
2,1, 9,21, 0, 5, 0.00,60.00,SummerDesignDay
10,626836679.6444671
46,249737579.99999974
70,96701579.99999997
345,153035999.9999997
992,231449399.99999977
1016,231449399.99999977
1496,64360242.843079399
1532,57764642.17263899
1556,57764642.17263899
2227,19341225.84448824
2365,6595600.670440401
4121,226.5013532022851
4133,40.489786682237568
4170,146.49394504991597
4230,0.0
4243,0.0
4354,126308247.29862567
4480,0.0
2,1, 9,21, 0, 6, 0.00,60.00,SummerDesignDay
10,641423348.8983293
46,249737579.99999974
70,96701579.99999997
345,153035999.9999997
992,231449399.99999977
1016,231449399.99999977
1496,64360913.57343237
1532,57764642.17263899
1556,57764642.17263899
2227,19280528.25303439
2365,6596271.400793388
4121,232.38426526804254
4133,46.407061379216447
4170,146.49394504991597
4230,0.0
4243,0.0
4354,140955608.26102973
4480,0.0
2,1, 9,21, 0, 7, 0.00,60.00,SummerDesignDay
10,693246899.2517681
46,249737579.99999974
70,96701579.99999997
345,153035999.9999997
992,231449399.99999977
1016,231449399.99999977
1496,64598139.05859928
1532,57764642.17263899
1556,57764642.17263899
2227,19281450.818501019
2365,6803601.590676842
4121,261.06529067702277
4133,68.55829104619977
4170,146.49394504991597
4230,29895.295283443276
4243,0.0
4354,192778207.36797659
4480,0.0
2,1, 9,21, 0, 8, 0.00,60.00,SummerDesignDay
10,715518561.6027365
46,249737579.99999974
70,96701579.99999997
345,153035999.9999997
992,231449399.99999977
1016,231449399.99999977
1496,64492966.642769288
1532,57764642.17263899
1556,57764642.17263899
2227,20161570.210206666
2365,6728324.470130293
4121,262.3684114760843
4133,57.23366422639468
4170,146.49394504991597
4230,0.0
4243,0.0
4354,214169749.02411855
4480,0.0
2,1, 9,21, 0, 9, 0.00,60.00,SummerDesignDay
10,746660733.4861248
46,249737579.99999974
70,96701579.99999997
345,153035999.9999997
992,231449399.99999977
1016,231449399.99999977
1496,64360237.10915426
1532,57764642.17263899
1556,57764642.17263899
2227,19401813.754376785
2365,6595594.936515272
4121,273.08482097641788
4133,57.06955959551003
4170,146.49394504991597
4230,0.0
4243,0.0
4354,246071666.6469267
4480,0.0
2,1, 9,21, 0,10, 0.00,60.00,SummerDesignDay
10,776828014.6865893
46,249737579.99999974
70,96701579.99999997
345,153035999.9999997
992,231449399.99999977
1016,231449399.99999977
1496,64360680.57333596
1532,57764642.17263899
1556,57764642.17263899
2227,19280856.682882504
2365,6596038.400696979
4121,283.81281664981017
4133,58.347823127623197
4170,146.49394504991597
4230,0.0
4243,0.0
4354,276359894.1908901
4480,0.0
2,1, 9,21, 0,11, 0.00,60.00,SummerDesignDay
10,797420383.3091601
46,249737579.99999974
70,96701579.99999997
345,153035999.9999997
992,231449399.99999977
1016,231449399.99999977
1496,64649721.38317207
1532,57764642.17263899
1556,57764642.17263899
2227,19281316.584592213
2365,6885079.210533079
4121,289.8517857641661
4133,59.2344761806328
4170,146.49394504991597
4230,0.0
4243,0.0
4354,296951796.8727822
4480,0.0
2,1, 9,21, 0,12, 0.00,60.00,SummerDesignDay
10,812425481.3557985
46,249737579.99999974
70,96701579.99999997
345,153035999.9999997
992,231449399.99999977
1016,231449399.99999977
1496,64410927.69494875
1532,57764642.17263899
1556,57764642.17263899
2227,20100475.388900326
2365,6646285.522309758
4121,293.40496100154999
4133,59.94033037030276
4170,146.49394504991597
4230,0.0
4243,0.0
4354,311137732.56193736
4480,0.0
2,1, 9,21, 0,13, 0.00,60.00,SummerDesignDay
10,823747829.639288
46,249737579.99999974
70,96701579.99999997
345,153035999.9999997
992,231449399.99999977
1016,231449399.99999977
1496,64360484.35689316
1532,57764642.17263899
1556,57764642.17263899
2227,19462821.05098214
2365,6595842.184254175
4121,296.62817851802608
4133,60.507353153466997
4170,146.49394504991597
4230,0.0
4243,0.0
4354,323097731.9601271
4480,0.0
2,1, 9,21, 0,14, 0.00,60.00,SummerDesignDay
10,837013462.8900836
46,249737579.99999974
70,96701579.99999997
345,153035999.9999997
992,231449399.99999977
1016,231449399.99999977
1496,64436399.74134145
1532,57764642.17263899
1556,57764642.17263899
2227,19280224.30566699
2365,6671757.568702458
4121,301.69081429540457
4133,61.528346310397328
4170,146.49394504991597
4230,0.0
4243,0.0
4354,336545956.89360216
4480,0.0
2,1, 9,21, 0,15, 0.00,60.00,SummerDesignDay
10,848187382.246773
46,249737579.99999974
70,96701579.99999997
345,153035999.9999997
992,231449399.99999977
1016,231449399.99999977
1496,64624678.77355205
1532,57764642.17263899
1556,57764642.17263899
2227,19281421.851363314
2365,6860036.600913064
4121,307.2738742964873
4133,62.86030636730556
4170,146.49394504991597
4230,0.0
4243,0.0
4354,347718673.12153556
4480,0.0
2,1, 9,21, 0,16, 0.00,60.00,SummerDesignDay
10,845887999.462733
46,249737579.99999974
70,96701579.99999997
345,153035999.9999997
992,231449399.99999977
1016,231449399.99999977
1496,64360231.2397791
1532,57764642.17263899
1556,57764642.17263899
2227,20040021.72642473
2365,6595589.067140117
4121,307.0098478585454
4133,62.927950539125259
4170,146.49394504991597
4230,0.0
4243,0.0
4354,344660690.72646036
4480,0.0
2,1, 9,21, 0,17, 0.00,60.00,SummerDesignDay
10,831451339.6350834
46,249737579.99999974
70,96701579.99999997
345,153035999.9999997
992,231449399.99999977
1016,231449399.99999977
1496,64360597.29197999
1532,57764642.17263899
1556,57764642.17263899
2227,19523241.676670527
2365,6595955.119340999
4121,302.0998375854307
4133,62.19896971932625
4170,146.49394504991597
4230,0.0
4243,0.0
4354,330740815.8585754
4480,0.0
2,1, 9,21, 0,18, 0.00,60.00,SummerDesignDay
10,801140887.9853814
46,249737579.99999974
70,96701579.99999997
345,153035999.9999997
992,231449399.99999977
1016,231449399.99999977
1496,64517737.74328244
1532,57764642.17263899
1556,57764642.17263899
2227,19280221.983726786
2365,6753095.570643455
4121,288.4105856516805
4133,59.36789714946985
4170,146.49394504991597
4230,0.0
4243,0.0
4354,300673397.591069
4480,0.0
2,1, 9,21, 0,19, 0.00,60.00,SummerDesignDay
10,760663252.3511183
46,249737579.99999974
70,96701579.99999997
345,153035999.9999997
992,231449399.99999977
1016,231449399.99999977
1496,64554764.379239369
1532,57764642.17263899
1556,57764642.17263899
2227,19281520.249360499
2365,6778552.344057927
4121,270.20523216032316
4133,55.82353700702387
4170,146.49394504991597
4230,11569.862542445848
4243,0.0
4354,260194481.89652563
4480,0.0
2,1, 9,21, 0,20, 0.00,60.00,SummerDesignDay
10,735030485.2451836
46,249737579.99999974
70,96701579.99999997
345,153035999.9999997
992,231449399.99999977
1016,231449399.99999977
1496,64429392.25106303
1532,57764642.17263899
1556,57764642.17263899
2227,19979459.522832775
2365,6595661.030318059
4121,259.7121894378145
4133,53.55395668135137
4170,146.49394504991597
4230,69089.04810598077
4243,0.0
4354,233863786.01016147
4480,0.0
2,1, 9,21, 0,21, 0.00,60.00,SummerDesignDay
10,716487510.6099141
46,249737579.99999974
70,96701579.99999997
345,153035999.9999997
992,231449399.99999977
1016,231449399.99999977
1496,64483846.92980911
1532,57764642.17263899
1556,57764642.17263899
2227,19583790.075959214
2365,6596145.885117662
4121,252.9386544493742
4133,52.15890898600976
4170,146.49394504991597
4230,123058.8720524483
4243,0.0
4354,215716487.59530039
4480,0.0
2,1, 9,21, 0,22, 0.00,60.00,SummerDesignDay
10,682244852.2044902
46,249737579.99999974
70,96701579.99999997
345,153035999.9999997
992,231449399.99999977
1016,231449399.99999977
1496,64599422.52475767
1532,57764642.17263899
1556,57764642.17263899
2227,19281336.49931866
2365,6834780.352118678
4121,240.54610877448736
4133,43.712444980668887
4170,146.49394504991597
4230,0.0
4243,0.0
4354,181776295.15906275
4480,0.0
2,1, 9,21, 0,23, 0.00,60.00,SummerDesignDay
10,670556897.3249116
46,249737579.99999974
70,96701579.99999997
345,153035999.9999997
992,231449399.99999977
1016,231449399.99999977
1496,64461720.7143782
1532,57764642.17263899
1556,57764642.17263899
2227,19281129.09227275
2365,6697078.541739212
4121,237.2256023414499
4133,43.4791658246135
4170,146.49394504991597
4230,0.0
4243,0.0
4354,170088551.00703658
4480,0.0
2,1, 9,21, 0,24, 0.00,60.00,SummerDesignDay
10,661276149.3332366
46,249737579.99999974
70,96701579.99999997
345,153035999.9999997
992,231449399.99999977
1016,231449399.99999977
1496,64360503.97834392
1532,57764642.17263899
1556,57764642.17263899
2227,19918521.279500475
2365,6595861.805704929
4121,234.508714496967
4133,43.30041958122413
4170,146.49394504991597
4230,0.0
4243,0.0
4354,160170413.5450216
4480,0.0
1,OAKLAND-METROPOLITAN-ARP ANN CLG 0.4% CONDNS DP=>MCDB,  37.72,-122.22,  -8.00,   2.00
2,1, 9,21, 0, 1, 0.00,60.00,SummerDesignDay
10,533613017.63555386
46,249737579.99999974
70,96701579.99999997
345,153035999.9999997
992,231449399.99999977
1016,231449399.99999977
1496,69660434.61659837
1532,57764642.17263899
1556,57764642.17263899
2227,19280840.25051644
2365,6595378.175091874
4121,205.96602986032506
4133,40.43717098001014
4170,146.49394504991597
4230,5300414.268867512
4243,0.0
4354,33144991.41900756
4480,0.0
2,1, 9,21, 0, 2, 0.00,60.00,SummerDesignDay
10,530265867.5486427
46,249737579.99999974
70,96701579.99999997
345,153035999.9999997
992,231449399.99999977
1016,231449399.99999977
1496,80158361.07565025
1532,57764642.17263899
1556,57764642.17263899
2227,19280413.725060356
2365,6595890.345823347
4121,204.11220002974458
4133,40.441893212187327
4170,146.49394504991597
4230,15797828.557187904
4243,0.0
4354,29798269.711382256
4480,0.0
2,1, 9,21, 0, 3, 0.00,60.00,SummerDesignDay
10,527859906.1700529
46,249737579.99999974
70,96701579.99999997
345,153035999.9999997
992,231449399.99999977
1016,231449399.99999977
1496,88836118.74580585
1532,57764642.17263899
1556,57764642.17263899
2227,19281103.501465918
2365,6722687.441703414
4121,202.78536931182854
4133,40.44457006481764
4170,146.49394504991597
4230,24348789.13146344
4243,0.0
4354,27391619.883217697
4480,0.0
2,1, 9,21, 0, 4, 0.00,60.00,SummerDesignDay
10,526866671.4220967
46,249737579.99999974
70,96701579.99999997
345,153035999.9999997
992,231449399.99999977
1016,231449399.99999977
1496,96630229.25030989
1532,57764642.17263899
1556,57764642.17263899
2227,20222195.78974481
2365,6809054.328189099
4121,201.71597380034249
4133,40.446099951114778
4170,146.49394504991597
4230,32056532.74948179
4243,0.0
4354,25457293.916378108
4480,0.0
2,1, 9,21, 0, 5, 0.00,60.00,SummerDesignDay
10,524470243.61498
46,249737579.99999974
70,96701579.99999997
345,153035999.9999997
992,231449399.99999977
1016,231449399.99999977
1496,102696143.05945754
1532,57764642.17263899
1556,57764642.17263899
2227,19341225.84448824
2365,6595600.670440401
4121,200.87778245844508
4133,40.44692269403424
4170,146.49394504991597
4230,38335900.21637815
4243,0.0
4354,23941836.892709435
4480,0.0
2,1, 9,21, 0, 6, 0.00,60.00,SummerDesignDay
10,536051071.7249887
46,249737579.99999974
70,96701579.99999997
345,153035999.9999997
992,231449399.99999977
1016,231449399.99999977
1496,94193256.04730267
1532,57764642.17263899
1556,57764642.17263899
2227,19280292.37923038
2365,6596095.471808769
4121,203.96501497226707
4133,43.70461837976271
4170,146.49394504991597
4230,29832518.402854906
4243,0.0
4354,35583595.38074331
4480,0.0
2,1, 9,21, 0, 7, 0.00,60.00,SummerDesignDay
10,571082551.5690928
46,249737579.99999974
70,96701579.99999997
345,153035999.9999997
992,231449399.99999977
1016,231449399.99999977
1496,70617612.1630197
1532,57764642.17263899
1556,57764642.17263899
2227,19281197.449667038
2365,6803903.795384137
4121,216.7488906876482
4133,50.026665173876498
4170,146.49394504991597
4230,6049066.194996575
4243,0.0
4354,70614157.37053499
4480,0.0
2,1, 9,21, 0, 8, 0.00,60.00,SummerDesignDay
10,602293024.2221186
46,249737579.99999974
70,96701579.99999997
345,153035999.9999997
992,231449399.99999977
1016,231449399.99999977
1496,65830259.97166841
1532,57764642.17263899
1556,57764642.17263899
2227,20161669.552413335
2365,6727965.309354916
4121,227.84877375447048
4133,47.48816173347328
4170,146.49394504991597
4230,1337652.4896744993
4243,0.0
4354,100944146.82093162
4480,0.0
2,1, 9,21, 0, 9, 0.00,60.00,SummerDesignDay
10,644056874.7332127
46,249737579.99999974
70,96701579.99999997
345,153035999.9999997
992,231449399.99999977
1016,231449399.99999977
1496,64577203.25307915
1532,57764642.17263899
1556,57764642.17263899
2227,19402493.956919098
2365,6595774.777552735
4121,241.58418484021628
4133,48.573373691779639
4170,146.49394504991597
4230,216786.3028874316
4243,0.0
4354,143467159.19210894
4480,0.0
2,1, 9,21, 0,10, 0.00,60.00,SummerDesignDay
10,685582964.0112844
46,249737579.99999974
70,96701579.99999997
345,153035999.9999997
992,231449399.99999977
1016,231449399.99999977
1496,64360637.18635018
1532,57764642.17263899
1556,57764642.17263899
2227,19279954.036790458
2365,6595995.013711181
4121,254.63969961105884
4133,50.15556528014632
4170,146.49394504991597
4230,0.0
4243,0.0
4354,185115775.3347943
4480,0.0
2,1, 9,21, 0,11, 0.00,60.00,SummerDesignDay
10,711280721.2017756
46,249737579.99999974
70,96701579.99999997
345,153035999.9999997
992,231449399.99999977
1016,231449399.99999977
1496,64841508.90063636
1532,57764642.17263899
1556,57764642.17263899
2227,19280674.89594549
2365,6885155.704792272
4121,262.2914625995931
4133,51.30238072939109
4170,146.49394504991597
4230,191711.0232051013
4243,0.0
4354,210812804.01436753
4480,0.0
2,1, 9,21, 0,12, 0.00,60.00,SummerDesignDay
10,728053645.9144969
46,249737579.99999974
70,96701579.99999997
345,153035999.9999997
992,231449399.99999977
1016,231449399.99999977
1496,65098631.31195545
1532,57764642.17263899
1556,57764642.17263899
2227,20101869.64732641
2365,6646347.809440406
4121,266.66405672449425
4133,52.23033540085227
4170,146.49394504991597
4230,687641.3298760521
4243,0.0
4354,226764529.60311348
4480,0.0
2,1, 9,21, 0,13, 0.00,60.00,SummerDesignDay
10,739458844.7715278
46,249737579.99999974
70,96701579.99999997
345,153035999.9999997
992,231449399.99999977
1016,231449399.99999977
1496,65387514.124085228
1532,57764642.17263899
1556,57764642.17263899
2227,19461427.782080089
2365,6595842.23058516
4121,270.14281665831228
4133,52.92228450201096
4170,146.49394504991597
4230,1027029.7208610743
4243,0.0
4354,238810166.84663118
4480,0.0
2,1, 9,21, 0,14, 0.00,60.00,SummerDesignDay
10,752414183.7596502
46,249737579.99999974
70,96701579.99999997
345,153035999.9999997
992,231449399.99999977
1016,231449399.99999977
1496,65671136.35159884
1532,57764642.17263899
1556,57764642.17263899
2227,19280224.472555065
2365,6671695.274832515
4121,275.1697490238949
4133,53.867986130301989
4170,146.49394504991597
4230,1234798.9041273364
4243,0.0
4354,251946704.1173461
4480,0.0
2,1, 9,21, 0,15, 0.00,60.00,SummerDesignDay
10,763348677.6586771
46,249737579.99999974
70,96701579.99999997
345,153035999.9999997
992,231449399.99999977
1016,231449399.99999977
1496,65955934.60483108
1532,57764642.17263899
1556,57764642.17263899
2227,19281419.421292288
2365,6860098.972014116
4121,280.7167315265354
4133,55.03245915792257
4170,146.49394504991597
4230,1331193.4601779697
4243,0.0
4354,262879997.52065335
4480,0.0
2,1, 9,21, 0,16, 0.00,60.00,SummerDesignDay
10,760763957.085957
46,249737579.99999974
70,96701579.99999997
345,153035999.9999997
992,231449399.99999977
1016,231449399.99999977
1496,65785500.22591135
1532,57764642.17263899
1556,57764642.17263899
2227,20041418.420874917
2365,6595589.122638124
4121,280.5184799228912
4133,55.19218125193852
4170,146.49394504991597
4230,1425268.9306342386
4243,0.0
4354,259535278.14660204
4480,0.0
2,1, 9,21, 0,17, 0.00,60.00,SummerDesignDay
10,746655026.2967091
46,249737579.99999974
70,96701579.99999997
345,153035999.9999997
992,231449399.99999977
1016,231449399.99999977
1496,65933283.620543349
1532,57764642.17263899
1556,57764642.17263899
2227,19521845.52807499
2365,6595954.978178549
4121,275.79240622614545
4133,54.68563146580255
4170,146.49394504991597
4230,1572686.4697258082
4243,0.0
4354,245945924.97622786
4480,0.0
2,1, 9,21, 0,18, 0.00,60.00,SummerDesignDay
10,716180841.0451312
46,249737579.99999974
70,96701579.99999997
345,153035999.9999997
992,231449399.99999977
1016,231449399.99999977
1496,66309533.35365653
1532,57764642.17263899
1556,57764642.17263899
2227,19280221.92908219
2365,6753033.117766318
4121,262.40203168669066
4133,52.53122955658225
4170,146.49394504991597
4230,1791858.063251221
4243,0.0
4354,215713376.71401704
4480,0.0
2,1, 9,21, 0,19, 0.00,60.00,SummerDesignDay
10,674695201.0479744
46,249737579.99999974
70,96701579.99999997
345,153035999.9999997
992,231449399.99999977
1016,231449399.99999977
1496,66637127.174937549
1532,57764642.17263899
1556,57764642.17263899
2227,19281522.2724721
2365,6778615.082701422
4121,244.40781706665229
4133,49.767334277457837
4170,146.49394504991597
4230,2093869.9195971336
4243,0.0
4354,174226454.36768524
4480,0.0
2,1, 9,21, 0,20, 0.00,60.00,SummerDesignDay
10,646925933.9535921
46,249737579.99999974
70,96701579.99999997
345,153035999.9999997
992,231449399.99999977
1016,231449399.99999977
1496,66728131.048835519
1532,57764642.17263899
1556,57764642.17263899
2227,19980853.355786034
2365,6595660.897890378
4121,233.93751111496594
4133,47.947996719565058
4170,146.49394504991597
4230,2367827.9783061558
4243,0.0
4354,145757866.6602949
4480,0.0
2,1, 9,21, 0,21, 0.00,60.00,SummerDesignDay
10,623713521.9223904
46,249737579.99999974
70,96701579.99999997
345,153035999.9999997
992,231449399.99999977
1016,231449399.99999977
1496,66957081.463508609
1532,57764642.17263899
1556,57764642.17263899
2227,19582396.344188874
2365,6596145.948970291
4121,226.97919654232443
4133,46.819968729090458
4170,146.49394504991597
4230,2596293.341899318
4243,0.0
4354,122943918.59900487
4480,0.0
2,1, 9,21, 0,22, 0.00,60.00,SummerDesignDay
10,585113575.9938394
46,249737579.99999974
70,96701579.99999997
345,153035999.9999997
992,231449399.99999977
1016,231449399.99999977
1496,64598985.018915999
1532,57764642.17263899
1556,57764642.17263899
2227,19281558.560005428
2365,6834342.846277007
4121,218.04395243969439
4133,42.61077474260348
4170,146.49394504991597
4230,0.0
4243,0.0
4354,84644819.38988139
4480,0.0
2,1, 9,21, 0,23, 0.00,60.00,SummerDesignDay
10,568690168.377441
46,249737579.99999974
70,96701579.99999997
345,153035999.9999997
992,231449399.99999977
1016,231449399.99999977
1496,64462354.94759998
1532,57764642.17263899
1556,57764642.17263899
2227,19281413.931769447
2365,6697712.774960978
4121,213.92280449460058
4133,42.387574687726559
4170,146.49394504991597
4230,0.0
4243,0.0
4354,68221560.52286694
4480,0.0
2,1, 9,21, 0,24, 0.00,60.00,SummerDesignDay
10,555173424.9687761
46,249737579.99999974
70,96701579.99999997
345,153035999.9999997
992,231449399.99999977
1016,231449399.99999977
1496,64360502.317336048
1532,57764642.17263899
1556,57764642.17263899
2227,19919195.709520364
2365,6595860.144697056
4121,210.48530644007787
4133,42.22601984035947
4170,146.49394504991597
4230,0.0
4243,0.0
4354,54067038.77394919
4480,0.0
1,OAKLAND-METROPOLITAN-ARP ANN HTG 99.6% CONDNS DB,  37.72,-122.22,  -8.00,   2.00
2,1, 1,21, 0, 1, 0.00,60.00,WinterDesignDay
10,72202.81935357556
46,0.0
70,0.0
345,0.0
992,0.0
1016,0.0
1496,418423434.89455798
1532,0.0
1556,0.0
2227,72000.0
2365,579679.1997937226
4121,202.81935357550629
4133,40.391857486865038
4170,146.49394504991597
4230,417843755.6947642
4243,0.0
4354,0.0
4480,0.0
2,1, 1,21, 0, 2, 0.00,60.00,WinterDesignDay
10,72212.7699029919
46,0.0
70,0.0
345,0.0
992,0.0
1016,0.0
1496,501019683.6893296
1532,0.0
1556,0.0
2227,72000.0
2365,833483.936473899
4121,212.76990299182803
4133,40.391857486865038
4170,146.49394504991597
4230,500186199.7528558
4243,0.0
4354,0.0
4480,0.0
2,1, 1,21, 0, 3, 0.00,60.00,WinterDesignDay
10,72219.68225788756
46,0.0
70,0.0
345,0.0
992,0.0
1016,0.0
1496,561526561.6642479
1532,0.0
1556,0.0
2227,72000.0
2365,833372.2904352646
4121,219.6822578875019
4133,40.391857486865038
4170,146.49394504991597
4230,560693189.3738127
4243,0.0
4354,0.0
4480,0.0
2,1, 1,21, 0, 4, 0.00,60.00,WinterDesignDay
10,72224.86531875335
46,0.0
70,0.0
345,0.0
992,0.0
1016,0.0
1496,612588424.2043365
1532,0.0
1556,0.0
2227,72000.0
2365,833413.0588825962
4121,224.86531875328758
4133,40.391857486865038
4170,146.49394504991597
4230,611755011.1454539
4243,0.0
4354,0.0
4480,0.0
2,1, 1,21, 0, 5, 0.00,60.00,WinterDesignDay
10,72229.07857157009
46,0.0
70,0.0
345,0.0
992,0.0
1016,0.0
1496,659918319.356028
1532,0.0
1556,0.0
2227,72000.0
2365,833295.4676707607
4121,229.07857157001906
4133,40.391857486865038
4170,146.49394504991597
4230,659085023.8883572
4243,0.0
4354,0.0
4480,0.0
2,1, 1,21, 0, 6, 0.00,60.00,WinterDesignDay
10,7874142.9240903
46,0.0
70,0.0
345,0.0
992,0.0
1016,0.0
1496,872053509.2433572
1532,0.0
1556,0.0
2227,72000.0
2365,670267.1543730949
4121,254.55875757546853
4133,63.196264197403689
4170,146.49394504991597
4230,871383242.088984
4243,0.0
4354,7801888.365332724
4480,0.0
2,1, 1,21, 0, 7, 0.00,60.00,WinterDesignDay
10,16769977.677817228
46,0.0
70,0.0
345,0.0
992,0.0
1016,0.0
1496,1785783484.836106
1532,0.0
1556,0.0
2227,72000.0
2365,742907.4627525576
4121,384.1873243566639
4133,106.59903222508618
4170,146.49394504991597
4230,1785040577.3733536
4243,0.0
4354,16697593.490492871
4480,0.0
2,1, 1,21, 0, 8, 0.00,60.00,WinterDesignDay
10,72302.03781710202
46,0.0
70,0.0
345,0.0
992,0.0
1016,0.0
1496,1462357811.8258906
1532,0.0
1556,0.0
2227,72000.0
2365,833457.1247514517
4121,302.0378171019516
4133,43.16823984191139
4170,146.49394504991597
4230,1461524354.7011388
4243,0.0
4354,0.0
4480,0.0
2,1, 1,21, 0, 9, 0.00,60.00,WinterDesignDay
10,72284.53195360565
46,0.0
70,0.0
345,0.0
992,0.0
1016,0.0
1496,1299161980.31908
1532,0.0
1556,0.0
2227,72000.0
2365,833339.9809085381
4121,284.53195360558876
4133,41.28791730368441
4170,146.49394504991597
4230,1298328640.3381716
4243,0.0
4354,0.0
4480,0.0
2,1, 1,21, 0,10, 0.00,60.00,WinterDesignDay
10,72275.84742586635
46,0.0
70,0.0
345,0.0
992,0.0
1016,0.0
1496,1215945592.427792
1532,0.0
1556,0.0
2227,72000.0
2365,833380.9672567472
4121,275.84742586629599
4133,40.752925734076587
4170,146.49394504991597
4230,1215112211.4605356
4243,0.0
4354,0.0
4480,0.0
2,1, 1,21, 0,11, 0.00,60.00,WinterDesignDay
10,72270.61778255644
46,0.0
70,0.0
345,0.0
992,0.0
1016,0.0
1496,1165295961.8810776
1532,0.0
1556,0.0
2227,72000.0
2365,833291.9367585644
4121,270.61778255635928
4133,40.599451718823768
4170,146.49394504991597
4230,1164462669.9443188
4243,0.0
4354,0.0
4480,0.0
2,1, 1,21, 0,12, 0.00,60.00,WinterDesignDay
10,72267.11892773897
46,0.0
70,0.0
345,0.0
992,0.0
1016,0.0
1496,1131620069.721756
1532,0.0
1556,0.0
2227,72000.0
2365,579602.1892915799
4121,267.11892773888959
4133,40.51369993077438
4170,146.49394504991597
4230,1131040467.5324643
4243,0.0
4354,0.0
4480,0.0
2,1, 1,21, 0,13, 0.00,60.00,WinterDesignDay
10,72264.69447461341
46,0.0
70,0.0
345,0.0
992,0.0
1016,0.0
1496,1108650360.6684347
1532,0.0
1556,0.0
2227,72000.0
2365,833383.7050382543
4121,264.6944746133438
4133,40.461120492789209
4170,146.49394504991597
4230,1107816976.9633964
4243,0.0
4354,0.0
4480,0.0
2,1, 1,21, 0,14, 0.00,60.00,WinterDesignDay
10,72262.97660007244
46,0.0
70,0.0
345,0.0
992,0.0
1016,0.0
1496,1092105044.9768434
1532,0.0
1556,0.0
2227,72000.0
2365,833425.1487241564
4121,262.9766000723617
4133,40.43047509120656
4170,146.49394504991597
4230,1091271619.828119
4243,0.0
4354,0.0
4480,0.0
2,1, 1,21, 0,15, 0.00,60.00,WinterDesignDay
10,72261.76779572884
46,0.0
70,0.0
345,0.0
992,0.0
1016,0.0
1496,1080484944.6168977
1532,0.0
1556,0.0
2227,72000.0
2365,833321.0217421366
4121,261.76779572876907
4133,40.41721102528456
4170,146.49394504991597
4230,1079651623.5951553
4243,0.0
4354,0.0
4480,0.0
2,1, 1,21, 0,16, 0.00,60.00,WinterDesignDay
10,72260.89229568096
46,0.0
70,0.0
345,0.0
992,0.0
1016,0.0
1496,1071938501.620091
1532,0.0
1556,0.0
2227,72000.0
2365,833348.6877945478
4121,260.8922956809107
4133,40.4081954651812
4170,146.49394504991597
4230,1071105152.9322964
4243,0.0
4354,0.0
4480,0.0
2,1, 1,21, 0,17, 0.00,60.00,WinterDesignDay
10,72260.25163233215
46,0.0
70,0.0
345,0.0
992,0.0
1016,0.0
1496,1065833073.1903137
1532,0.0
1556,0.0
2227,72000.0
2365,833388.8519713967
4121,260.25163233207186
4133,40.4016131473045
4170,146.49394504991597
4230,1064999684.3383423
4243,0.0
4354,0.0
4480,0.0
2,1, 1,21, 0,18, 0.00,60.00,WinterDesignDay
10,72259.7838662133
46,0.0
70,0.0
345,0.0
992,0.0
1016,0.0
1496,1061032812.850791
1532,0.0
1556,0.0
2227,72000.0
2365,579580.6931458252
4121,259.7838662132401
4133,40.39715329549763
4170,146.49394504991597
4230,1060453232.157645
4243,0.0
4354,0.0
4480,0.0
2,1, 1,21, 0,19, 0.00,60.00,WinterDesignDay
10,72259.45314619721
46,0.0
70,0.0
345,0.0
992,0.0
1016,0.0
1496,1058056347.5768528
1532,0.0
1556,0.0
2227,72000.0
2365,833354.044978367
4121,259.453146197137
4133,40.39431514394279
4170,146.49394504991597
4230,1057222993.5318744
4243,0.0
4354,0.0
4480,0.0
2,1, 1,21, 0,20, 0.00,60.00,WinterDesignDay
10,72259.20933986634
46,0.0
70,0.0
345,0.0
992,0.0
1016,0.0
1496,1055719494.8812633
1532,0.0
1556,0.0
2227,72000.0
2365,833392.9917664847
4121,259.20933986630527
4133,40.3933710185602
4170,146.49394504991597
4230,1054886101.8894968
4243,0.0
4354,0.0
4480,0.0
2,1, 1,21, 0,21, 0.00,60.00,WinterDesignDay
10,72259.02647430959
46,0.0
70,0.0
345,0.0
992,0.0
1016,0.0
1496,1053991100.0921189
1532,0.0
1556,0.0
2227,72000.0
2365,833433.6208991384
4121,259.02647430953746
4133,40.39318475755434
4170,146.49394504991597
4230,1053157666.4712198
4243,0.0
4354,0.0
4480,0.0
2,1, 1,21, 0,22, 0.00,60.00,WinterDesignDay
10,846503.5713129571
46,0.0
70,0.0
345,0.0
992,0.0
1016,0.0
1496,848606965.2800464
1532,0.0
1556,0.0
2227,846244.6878870867
2365,833468.9664471804
4121,258.88342587054145
4133,40.391857486865038
4170,146.49394504991597
4230,847773496.3135991
4243,0.0
4354,0.0
4480,0.0
2,1, 1,21, 0,23, 0.00,60.00,WinterDesignDay
10,72186.88599941341
46,0.0
70,0.0
345,0.0
992,0.0
1016,0.0
1496,357507137.76328828
1532,0.0
1556,0.0
2227,72000.0
2365,773815.3044443551
4121,186.88599941334733
4133,40.39205436343137
4170,146.49394504991597
4230,356733322.45884397
4243,0.0
4354,0.0
4480,0.0
2,1, 1,21, 0,24, 0.00,60.00,WinterDesignDay
10,72192.34815397537
46,0.0
70,0.0
345,0.0
992,0.0
1016,0.0
1496,426589838.8642877
1532,0.0
1556,0.0
2227,72000.0
2365,639200.0922826747
4121,192.34815397530248
4133,40.48231843600578
4170,146.49394504991597
4230,425950638.77200499
4243,0.0
4354,0.0
4480,0.0
1,OAKLAND-METROPOLITAN-ARP AUG CLG 0.4% CONDNS DB=>MCWB,  37.72,-122.22,  -8.00,   2.00
2,1, 8,21, 0, 1, 0.00,60.00,SummerDesignDay
10,671171751.6957691
46,249737579.99999974
70,96701579.99999997
345,153035999.9999997
992,231449399.99999977
1016,231449399.99999977
1496,64356302.84246739
1532,57764642.17263899
1556,57764642.17263899
2227,19273328.815472045
2365,6591660.669828399
4121,235.4586551878918
4133,40.47652423146956
4170,146.49394504991597
4230,0.0
4243,0.0
4354,170711207.4216418
4480,0.0
2,1, 8,21, 0, 2, 0.00,60.00,SummerDesignDay
10,665802727.2724658
46,249737579.99999974
70,96701579.99999997
345,153035999.9999997
992,231449399.99999977
1016,231449399.99999977
1496,64356910.01276399
1532,57764642.17263899
1556,57764642.17263899
2227,19272368.869354953