Program Version,EnergyPlus, Version 9.0.1-bb7ca4f0da, YMD=2019.12.17 17:26
1,5,Environment Title[],Latitude[deg],Longitude[deg],Time Zone[],Elevation[m]
2,8,Day of Simulation[],Month[],Day of Month[],DST Indicator[1=yes 0=no],Hour[],StartMinute[],EndMinute[],DayType
3,5,Cumulative Day of Simulation[],Month[],Day of Month[],DST Indicator[1=yes 0=no],DayType  ! When Daily Meters Requested
4,2,Cumulative Days of Simulation[],Month[]  ! When Monthly Meters Requested
5,1,Cumulative Days of Simulation[] ! When Run Period Meters Requested
6,1,Calendar Year of Simulation[] ! When Annual Meters Requested
1496,1,Gas:Facility [J] !Hourly
992,1,InteriorEquipment:Electricity [J] !Hourly
10,1,Electricity:Facility [J] !Hourly
4354,1,Cooling:Electricity [J] !Hourly
46,1,InteriorLights:Electricity [J] !Hourly
4121,1,Fans:Electricity [J] !Hourly
4480,1,Pumps:Electricity [J] !Hourly
4243,1,Heating:Electricity [J] !Hourly
2365,1,WaterSystems:Gas [J] !Hourly
2227,1,WaterSystems:Electricity [J] !Hourly
1532,1,InteriorEquipment:Gas [J] !Hourly
1556,1,Receptacle:InteriorEquipment:Gas [J] !Hourly
4230,1,Heating:Gas [J] !Hourly
1016,1,Receptacle:InteriorEquipment:Electricity [J] !Hourly
70,1,ComplianceLtg:InteriorLights:Electricity [J] !Hourly
345,1,NonComplianceLtg:InteriorLights:Electricity [J] !Hourly
4133,1,General:Fans:Electricity [J] !Hourly
4170,1,ProcessMotors:Fans:Electricity [J] !Hourly
End of Data Dictionary
1,TORRANCE-MUNICIPAL ANN CLG 0.4% CONDNS DB=>MCWB,  33.80,-118.33,  -8.00,  27.00
2,1, 8,21, 0, 1, 0.00,60.00,SummerDesignDay
10,694036485.7826609
46,249737579.99999974
70,96701579.99999997
345,153035999.9999997
992,231449399.99999977
1016,231449399.99999977
1496,63803965.6432649
1532,57764642.17263899
1556,57764642.17263899
2227,17736221.840623034
2365,6039323.470625903
4121,240.0529528188212
4133,40.435305201375957
4170,146.49394504991595
4230,0.0
4243,0.0
4354,195113043.88908486
4480,0.0
2,1, 8,21, 0, 2, 0.00,60.00,SummerDesignDay
10,689782179.5524619
46,249737579.99999974
70,96701579.99999997
345,153035999.9999997
992,231449399.99999977
1016,231449399.99999977
1496,64133870.816873397
1532,57764642.17263899
1556,57764642.17263899
2227,17797715.768466239
2365,6369228.644234405
4121,239.1661901071203
4133,40.4471832009286
4170,146.49394504991595
4230,0.0
4243,0.0
4354,190797244.61780543
4480,0.0
2,1, 8,21, 0, 3, 0.00,60.00,SummerDesignDay
10,688008730.1709973
46,249737579.99999974
70,96701579.99999997
345,153035999.9999997
992,231449399.99999977
1016,231449399.99999977
1496,64137918.363923389
1532,57764642.17263899
1556,57764642.17263899
2227,18753140.1244603
2365,6373276.19128439
4121,238.70479305197905
4133,40.456101415614018
4170,146.49394504991595
4230,0.0
4243,0.0
4354,188068371.3417438
4480,0.0
2,1, 8,21, 0, 4, 0.00,60.00,SummerDesignDay
10,684531374.5937482
46,249737579.99999974
70,96701579.99999997
345,153035999.9999997
992,231449399.99999977
1016,231449399.99999977
1496,63803881.00270396
1532,57764642.17263899
1556,57764642.17263899
2227,17736270.80938175
2365,6039238.8300649649
4121,238.31486046993039
4133,40.463802305062248
4170,146.49394504991595
4230,0.0
4243,0.0
4354,185607885.46950606
4480,0.0
2,1, 8,21, 0, 5, 0.00,60.00,SummerDesignDay
10,682936038.7419496
46,249737579.99999974
70,96701579.99999997
345,153035999.9999997
992,231449399.99999977
1016,231449399.99999977
1496,64146988.619482498
1532,57764642.17263899
1556,57764642.17263899
2227,18173018.129899686
2365,6382346.446843507
4121,238.01361853754507
4133,40.47005397424419
4170,146.49394504991595
4230,0.0
4243,0.0
4354,183575802.5984314
4480,0.0
2,1, 8,21, 0, 6, 0.00,60.00,SummerDesignDay
10,701798199.1635468
46,249737579.99999974
70,96701579.99999997
345,153035999.9999997
992,231449399.99999977
1016,231449399.99999977
1496,64124976.41482663
1532,57764642.17263899
1556,57764642.17263899
2227,18378232.60684262
2365,6360334.242187641
4121,246.05970933641363
4133,46.86282805592774
4170,146.49394504991595
4230,0.0
4243,0.0
4354,202232740.49699468
4480,0.0
2,1, 8,21, 0, 7, 0.00,60.00,SummerDesignDay
10,763722891.9020925
46,249737579.99999974
70,96701579.99999997
345,153035999.9999997
992,231449399.99999977
1016,231449399.99999977
1496,63813685.15359103
1532,57764642.17263899
1556,57764642.17263899
2227,17736837.650566799
2365,6049042.980952036
4121,288.08946908447219
4133,79.40095091258317
4170,146.49394504991597
4230,0.0
4243,0.0
4354,264798786.16205666
4480,0.0
2,1, 8,21, 0, 8, 0.00,60.00,SummerDesignDay
10,776899143.6189647
46,249737579.99999974
70,96701579.99999997
345,153035999.9999997
992,231449399.99999977
1016,231449399.99999977
1496,64150406.46417885
1532,57764642.17263899
1556,57764642.17263899
2227,18546734.251375773
2365,6385764.29153986
4121,280.58728055304
4133,62.32681429511885
4170,146.49394504991595
4230,0.0
4243,0.0
4354,277165148.7803082
4480,0.0
2,1, 8,21, 0, 9, 0.00,60.00,SummerDesignDay
10,802523654.221754
46,249737579.99999974
70,96701579.99999997
345,153035999.9999997
992,231449399.99999977
1016,231449399.99999977
1496,64111677.96421873
1532,57764642.17263899
1556,57764642.17263899
2227,18004809.12066386
2365,6347035.791579745
4121,288.67581400528248
4133,60.36675053448814
4170,146.49394504991595
4230,0.0
4243,0.0
4354,303331576.425276
4480,0.0
2,1, 8,21, 0,10, 0.00,60.00,SummerDesignDay
10,824016931.227732
46,249737579.99999974
70,96701579.99999997
345,153035999.9999997
992,231449399.99999977
1016,231449399.99999977
1496,63826544.02662067
1532,57764642.17263899
1556,57764642.17263899
2227,17736102.770880134
2365,6061901.853981687
4121,295.1738865849249
4133,60.41297323350149
4170,146.49394504991595
4230,0.0
4243,0.0
4354,325093553.2829651
4480,0.0
2,1, 8,21, 0,11, 0.00,60.00,SummerDesignDay
10,839153851.5525985
46,249737579.99999974
70,96701579.99999997
345,153035999.9999997
992,231449399.99999977
1016,231449399.99999977
1496,64150408.33385926
1532,57764642.17263899
1556,57764642.17263899
2227,18815624.96761571
2365,6385766.161220268
4121,297.93230286524217
4133,60.37422670771033
4170,146.49394504991595
4230,0.0
4243,0.0
4354,339150948.6526799
4480,0.0
2,1, 8,21, 0,12, 0.00,60.00,SummerDesignDay
10,847672286.4556879
46,249737579.99999974
70,96701579.99999997
345,153035999.9999997
992,231449399.99999977
1016,231449399.99999977
1496,64098756.81779721
1532,57764642.17263899
1556,57764642.17263899
2227,17736708.607846288
2365,6334114.6451582149
4121,299.2976883352722
4133,60.31649971891583
4170,146.49394504991595
4230,0.0
4243,0.0
4354,348748298.55015316
4480,0.0
2,1, 8,21, 0,13, 0.00,60.00,SummerDesignDay
10,856734386.0168697
46,249737579.99999974
70,96701579.99999997
345,153035999.9999997
992,231449399.99999977
1016,231449399.99999977
1496,63839414.28409485
1532,57764642.17263899
1556,57764642.17263899
2227,17901951.691029926
2365,6074772.1114558619
4121,301.1888475737708
4133,60.418074315340408
4170,146.49394504991595
4230,0.0
4243,0.0
4354,357645153.1369921
4480,0.0
2,1, 8,21, 0,14, 0.00,60.00,SummerDesignDay
10,870088008.5250822
46,249737579.99999974
70,96701579.99999997
345,153035999.9999997
992,231449399.99999977
1016,231449399.99999977
1496,64150411.61433667
1532,57764642.17263899
1556,57764642.17263899
2227,18648710.87320884
2365,6385769.441697685
4121,305.98250506659937
4133,61.21314212392393
4170,146.49394504991595
4230,0.0
4243,0.0
4354,370252011.66936829
4480,0.0
2,1, 8,21, 0,15, 0.00,60.00,SummerDesignDay
10,880619196.7931962
46,249737579.99999974
70,96701579.99999997
345,153035999.9999997
992,231449399.99999977
1016,231449399.99999977
1496,64085842.30837339
1532,57764642.17263899
1556,57764642.17263899
2227,17736159.559625783
2365,6321200.135734404
4121,311.62133836117189
4133,62.43188606035748
4170,146.49394504991595
4230,0.0
4243,0.0
4354,381695745.612232
4480,0.0
2,1, 8,21, 0,16, 0.00,60.00,SummerDesignDay
10,881716929.5608306
46,249737579.99999974
70,96701579.99999997
345,153035999.9999997
992,231449399.99999977
1016,231449399.99999977
1496,63852282.26088267
1532,57764642.17263899
1556,57764642.17263899
2227,18277340.75007844
2365,6087640.088243676
4121,313.0910398466135
4133,62.82660403953471
4170,146.49394504991595
4230,0.0
4243,0.0
4354,382252295.7197123
4480,0.0
2,1, 8,21, 0,17, 0.00,60.00,SummerDesignDay
10,868090691.7475249
46,249737579.99999974
70,96701579.99999997
345,153035999.9999997
992,231449399.99999977
1016,231449399.99999977
1496,64150416.30078216
1532,57764642.17263899
1556,57764642.17263899
2227,18273431.8969595
2365,6385774.128143176
4121,308.03774142264606
4133,62.1525303417007
4170,146.49394504991595
4230,0.0
4243,0.0
4354,368629971.812824
4480,0.0
2,1, 8,21, 0,18, 0.00,60.00,SummerDesignDay
10,845037572.8931451
46,249737579.99999974
70,96701579.99999997
345,153035999.9999997
992,231449399.99999977
1016,231449399.99999977
1496,64072931.80246274
1532,57764642.17263899
1556,57764642.17263899
2227,17735993.258294658
2365,6308289.629823757
4121,298.34680768287987
4133,60.07490683952352
4170,146.49394504991595
4230,0.0
4243,0.0
4354,346114301.28804299
4480,0.0
2,1, 8,21, 0,19, 0.00,60.00,SummerDesignDay
10,807894631.716023
46,249737579.99999974
70,96701579.99999997
345,153035999.9999997
992,231449399.99999977
1016,231449399.99999977
1496,63865150.565540198
1532,57764642.17263899
1556,57764642.17263899
2227,18652290.47313406
2365,6100508.392901201
4121,281.3615676056267
4133,57.06450316247765
4170,146.49394504991595
4230,0.0
4243,0.0
4354,308055079.88132116
4480,0.0
2,1, 8,21, 0,20, 0.00,60.00,SummerDesignDay
10,780581808.228666
46,249737579.99999974
70,96701579.99999997
345,153035999.9999997
992,231449399.99999977
1016,231449399.99999977
1496,64150422.38952705
1532,57764642.17263899
1556,57764642.17263899
2227,17899714.930679304
2365,6385780.21688806
4121,270.3514762467453
4133,54.84792657063405
4170,146.49394504991595
4230,0.0
4243,0.0
4354,281494842.9465103
4480,0.0
2,1, 8,21, 0,21, 0.00,60.00,SummerDesignDay
10,763317552.2109171
46,249737579.99999974
70,96701579.99999997
345,153035999.9999997
992,231449399.99999977
1016,231449399.99999977
1496,64060022.67005549
1532,57764642.17263899
1556,57764642.17263899
2227,17736108.39564366
2365,6295380.497416499
4121,263.7478680794272
4133,53.49243180952879
4170,146.49394504991595
4230,0.0
4243,0.0
4354,264394200.06740547
4480,0.0
2,1, 8,21, 0,22, 0.00,60.00,SummerDesignDay
10,730869898.6428838
46,249737579.99999974
70,96701579.99999997
345,153035999.9999997
992,231449399.99999977
1016,231449399.99999977
1496,63878293.85288127
1532,57764642.17263899
1556,57764642.17263899
2227,18816738.138435496
2365,6113651.680242273
4121,250.21827800088586
4133,43.71387872867088
4170,146.49394504991595
4230,0.0
4243,0.0
4354,230865930.28617049
4480,0.0
2,1, 8,21, 0,23, 0.00,60.00,SummerDesignDay
10,719999343.6656599
46,249737579.99999974
70,96701579.99999997
345,153035999.9999997
992,231449399.99999977
1016,231449399.99999977
1496,64150640.60253066
1532,57764642.17263899
1556,57764642.17263899
2227,17736009.05117465
2365,6385998.4298916659
4121,247.20682869510399
4133,43.52729158006173
4170,146.49394504991595
4230,0.0
4243,0.0
4354,221076107.4076563
4480,0.0
2,1, 8,21, 0,24, 0.00,60.00,SummerDesignDay
10,711941222.7587717
46,249737579.99999974
70,96701579.99999997
345,153035999.9999997
992,231449399.99999977
1016,231449399.99999977
1496,64046924.10757227
1532,57764642.17263899
1556,57764642.17263899
2227,18006957.114710776
2365,6282281.934933281
4121,244.79653051105266
4133,43.37255590124532
4170,146.49394504991595
4230,0.0
4243,0.0
4354,212747040.8475304
4480,0.0
1,TORRANCE-MUNICIPAL ANN CLG 0.4% CONDNS DP=>MCDB,  33.80,-118.33,  -8.00,  27.00
2,1, 8,21, 0, 1, 0.00,60.00,SummerDesignDay
10,630801161.0528417
46,249737579.99999974
70,96701579.99999997
345,153035999.9999997
992,231449399.99999977
1016,231449399.99999977
1496,63803898.91692668
1532,57764642.17263899
1556,57764642.17263899
2227,17736483.831793835
2365,6039256.744287698
4121,224.56154870186399
4133,40.40685954994025
4170,146.49394504991595
4230,0.0
4243,0.0
4354,131877472.65949925
4480,0.0
2,1, 8,21, 0, 2, 0.00,60.00,SummerDesignDay
10,623132713.1184902
46,249737579.99999974
70,96701579.99999997
345,153035999.9999997
992,231449399.99999977
1016,231449399.99999977
1496,64134032.13556947
1532,57764642.17263899
1556,57764642.17263899
2227,17797081.32693487
2365,6369389.962930474
4121,223.1112005360103
4133,40.413097002664787
4170,146.49394504991595
4230,0.0
4243,0.0
4354,124148428.68035493
4480,0.0
2,1, 8,21, 0, 3, 0.00,60.00,SummerDesignDay
10,618673732.700784
46,249737579.99999974
70,96701579.99999997
345,153035999.9999997
992,231449399.99999977
1016,231449399.99999977
1496,64137758.276389788
1532,57764642.17263899
1556,57764642.17263899
2227,18753776.360021384
2365,6373116.103750796
4121,222.10541328446849
4133,40.41718290383257
4170,146.49394504991595
4230,0.0
4243,0.0
4354,118732754.23534936
4480,0.0
2,1, 8,21, 0, 4, 0.00,60.00,SummerDesignDay
10,612936053.93118
46,249737579.99999974
70,96701579.99999997
345,153035999.9999997
992,231449399.99999977
1016,231449399.99999977
1496,63803881.82031409
1532,57764642.17263899
1556,57764642.17263899
2227,17736271.572840357
2365,6039239.647675097
4121,221.23995044396174
4133,40.42001187571541
4170,146.49394504991595
4230,0.0
4243,0.0
4354,114012581.11838933
4480,0.0
2,1, 8,21, 0, 5, 0.00,60.00,SummerDesignDay
10,609594104.8202198
46,249737579.99999974
70,96701579.99999997
345,153035999.9999997
992,231449399.99999977
1016,231449399.99999977
1496,64147145.766753178
1532,57764642.17263899
1556,57764642.17263899
2227,18172382.560964884
2365,6382503.594114184
4121,220.52496644841788
4133,40.4220225228563
4170,146.49394504991595
4230,0.0
4243,0.0
4354,110234521.7342883
4480,0.0
2,1, 8,21, 0, 6, 0.00,60.00,SummerDesignDay
10,629127665.0150218
46,249737579.99999974
70,96701579.99999997
345,153035999.9999997
992,231449399.99999977
1016,231449399.99999977
1496,64124772.65263015
1532,57764642.17263899
1556,57764642.17263899
2227,18378495.1199521
2365,6360130.47999117
4121,226.81469668352407
4133,45.06286524198314
4170,146.49394504991595
4230,0.0
4243,0.0
4354,129561963.08037293
4480,0.0
2,1, 8,21, 0, 7, 0.00,60.00,SummerDesignDay
10,694379460.621629
46,249737579.99999974
70,96701579.99999997
345,153035999.9999997
992,231449399.99999977
1016,231449399.99999977
1496,64909659.8770899
1532,57764642.17263899
1556,57764642.17263899
2227,17736615.718743117
2365,6049195.623979367
4121,253.4166825563676
4133,61.20946268778107
4170,146.49394504991597
4230,1095822.0804715497
4243,0.0
4354,195455611.4862033
4480,0.0
2,1, 8,21, 0, 8, 0.00,60.00,SummerDesignDay
10,714256539.5552545
46,249737579.99999974
70,96701579.99999997
345,153035999.9999997
992,231449399.99999977
1016,231449399.99999977
1496,64150406.47406984
1532,57764642.17263899
1556,57764642.17263899
2227,18547055.791308743
2365,6385764.301430854
4121,255.69161230573892
4133,52.82209923282692
4170,146.49394504991595
4230,0.0
4243,0.0
4354,214522248.07233308
4480,0.0
2,1, 8,21, 0, 9, 0.00,60.00,SummerDesignDay
10,751112283.7717023
46,249737579.99999974
70,96701579.99999997
345,153035999.9999997
992,231449399.99999977
1016,231449399.99999977
1496,64111568.54394242
1532,57764642.17263899
1556,57764642.17263899
2227,18004488.85057366
2365,6346926.371303431
4121,266.84242615837027
4133,52.71664900506938
4170,146.49394504991595
4230,0.0
4243,0.0
4354,251920548.07870237
4480,0.0
2,1, 8,21, 0,10, 0.00,60.00,SummerDesignDay
10,784616671.2236577
46,249737579.99999974
70,96701579.99999997
345,153035999.9999997
992,231449399.99999977
1016,231449399.99999977
1496,63826652.99773203
1532,57764642.17263899
1556,57764642.17263899
2227,17736103.017098916
2365,6062010.825093038
4121,275.1287338881538
4133,53.36979863951171
4170,146.49394504991595
4230,0.0
4243,0.0
4354,285693313.0778247
4480,0.0
2,1, 8,21, 0,11, 0.00,60.00,SummerDesignDay
10,807776603.023325
46,249737579.99999974
70,96701579.99999997
345,153035999.9999997
992,231449399.99999977
1016,231449399.99999977
1496,64150408.355716999
1532,57764642.17263899
1556,57764642.17263899
2227,18815624.195820307
2365,6385766.183078004
4121,279.4094903417572
4133,53.72992390340367
4170,146.49394504991595
4230,0.0
4243,0.0
4354,307773719.41801419
4480,0.0
2,1, 8,21, 0,12, 0.00,60.00,SummerDesignDay
10,818023362.9254912
46,249737579.99999974
70,96701579.99999997
345,153035999.9999997
992,231449399.99999977
1016,231449399.99999977
1496,64098647.46477378
1532,57764642.17263899
1556,57764642.17263899
2227,17736707.72172369
2365,6334005.292134787
4121,281.55841328829129
4133,53.941275600124189
4170,146.49394504991595
4230,0.0
4243,0.0
4354,319099393.6453543
4480,0.0
2,1, 8,21, 0,13, 0.00,60.00,SummerDesignDay
10,827365226.4817793
46,249737579.99999974
70,96701579.99999997
345,153035999.9999997
992,231449399.99999977
1016,231449399.99999977
1496,63839523.224946688
1532,57764642.17263899
1556,57764642.17263899
2227,17902274.611565755
2365,6074881.052307697
4121,283.6668934438902
4133,54.18391379544582
4170,146.49394504991595
4230,0.0
4243,0.0
4354,328275688.20332017
4480,0.0
2,1, 8,21, 0,14, 0.00,60.00,SummerDesignDay
10,840925378.8834026
46,249737579.99999974
70,96701579.99999997
345,153035999.9999997
992,231449399.99999977
1016,231449399.99999977
1496,64275587.60921014
1532,57764642.17263899
1556,57764642.17263899
2227,18648387.571382405
2365,6385769.475476386
4121,288.5265586246445
4133,54.91907207987324
4170,146.49394504991595
4230,125175.96109476549
4243,0.0
4354,341089722.7854614
4480,0.0
2,1, 8,21, 0,15, 0.00,60.00,SummerDesignDay
10,851189200.3974054
46,249737579.99999974
70,96701579.99999997
345,153035999.9999997
992,231449399.99999977
1016,231449399.99999977
1496,64300542.40581093
1532,57764642.17263899
1556,57764642.17263899
2227,17736159.25872481
2365,6321090.827649267
4121,294.0494234729945
4133,55.98422473078489
4170,146.49394504991595
4230,214809.40552267596
4243,0.0
4354,352265767.08925727
4480,0.0
2,1, 8,21, 0,16, 0.00,60.00,SummerDesignDay
10,851301825.9037037
46,249737579.99999974
70,96701579.99999997
345,153035999.9999997
992,231449399.99999977
1016,231449399.99999977
1496,64137128.813488688
1532,57764642.17263899
1556,57764642.17263899
2227,18277663.73072516
2365,6087749.020924481
4121,295.31608637501389
4133,56.38298158334892
4170,146.49394504991595
4230,284737.6199252057
4243,0.0
4354,351836886.85689237
4480,0.0
2,1, 8,21, 0,17, 0.00,60.00,SummerDesignDay
10,837035561.5506117
46,249737579.99999974
70,96701579.99999997
345,153035999.9999997
992,231449399.99999977
1016,231449399.99999977
1496,64533195.634338069
1532,57764642.17263899
1556,57764642.17263899
2227,18273109.49160995
2365,6385774.173806934
4121,290.11740794772916
4133,55.861568277980797
4170,146.49394504991595
4230,382779.2878921458
4243,0.0
4354,337575181.9415937
4480,0.0
2,1, 8,21, 0,18, 0.00,60.00,SummerDesignDay
10,813662136.6100217
46,249737579.99999974
70,96701579.99999997
345,153035999.9999997
992,231449399.99999977
1016,231449399.99999977
1496,64593976.716176319
1532,57764642.17263899
1556,57764642.17263899
2227,17735993.27436521
2365,6308180.344400793
4121,280.6780857067082
4133,54.21408508708167
4170,146.49394504991595
4230,521154.1991365341
4243,0.0
4354,314738882.6575708
4480,0.0
2,1, 8,21, 0,19, 0.00,60.00,SummerDesignDay
10,775559210.0582188
46,249737579.99999974
70,96701579.99999997
345,153035999.9999997
992,231449399.99999977
1016,231449399.99999977
1496,64584097.319957587
1532,57764642.17263899
1556,57764642.17263899
2227,18652612.63745421
2365,6100617.339491325
4121,263.9241147412284
4133,51.79572759953028
4170,146.49394504991595
4230,718837.8078272645
4243,0.0
4354,275719353.4966499
4480,0.0
2,1, 8,21, 0,20, 0.00,60.00,SummerDesignDay
10,742844149.2411603
46,249737579.99999974
70,96701579.99999997
345,153035999.9999997
992,231449399.99999977
1016,231449399.99999977
1496,65052666.63486859
1532,57764642.17263899
1556,57764642.17263899
2227,17899394.315491529
2365,6385780.274410738
4121,253.07463519861103
4133,49.989242065165047
4170,146.49394504991595
4230,902244.1878188663
4243,0.0
4354,243757521.8510336
4480,0.0
2,1, 8,21, 0,21, 0.00,60.00,SummerDesignDay
10,719212292.9409112
46,249737579.99999974
70,96701579.99999997
345,153035999.9999997
992,231449399.99999977
1016,231449399.99999977
1496,65102551.59804565
1532,57764642.17263899
1556,57764642.17263899
2227,17736107.50303354
2365,6295271.212399815
4121,246.17143870930043
4133,48.875137496249148
4170,146.49394504991595
4230,1042638.213006844
4243,0.0
4354,220288959.2664389
4480,0.0
2,1, 8,21, 0,22, 0.00,60.00,SummerDesignDay
10,682197095.2970908
46,249737579.99999974
70,96701579.99999997
345,153035999.9999997
992,231449399.99999977
1016,231449399.99999977
1496,63878547.27127744
1532,57764642.17263899
1556,57764642.17263899
2227,18817358.855539457
2365,6113905.098638453
4121,235.65963898101513
4133,42.81040197452188
4170,146.49394504991595
4230,0.0
4243,0.0
4354,182192520.78191249
4480,0.0
2,1, 8,21, 0,23, 0.00,60.00,SummerDesignDay
10,665944542.2686788
46,249737579.99999974
70,96701579.99999997
345,153035999.9999997
992,231449399.99999977
1016,231449399.99999977
1496,64150900.57364946
1532,57764642.17263899
1556,57764642.17263899
2227,17736039.698907004
2365,6386258.401010468
4121,232.03719178880659
4133,42.62443911108315
4170,146.49394504991595
4230,0.0
4243,0.0
4354,167021290.53258009
4480,0.0
2,1, 8,21, 0,24, 0.00,60.00,SummerDesignDay
10,653161952.4285281
46,249737579.99999974
70,96701579.99999997
345,153035999.9999997
992,231449399.99999977
1016,231449399.99999977
1496,64046082.52647708
1532,57764642.17263899
1556,57764642.17263899
2227,18007089.168767588
2365,6281440.353838095
4121,229.04324690562224
4133,42.49138199172727
4170,146.49394504991595
4230,0.0
4243,0.0
4354,153967654.2165136
4480,0.0
1,TORRANCE-MUNICIPAL ANN HTG 99.6% CONDNS DB,  33.80,-118.33,  -8.00,  27.00
2,1, 1,21, 0, 1, 0.00,60.00,WinterDesignDay
10,72203.75928587468
46,0.0
70,0.0
345,0.0
992,0.0
1016,0.0
1496,410862278.92393967
1532,0.0
1556,0.0
2227,72000.0
2365,579679.1997937226
4121,203.75928587460786
4133,40.345670080820799
4170,146.49394504991595
4230,410282599.7241459
4243,0.0
4354,0.0
4480,0.0
2,1, 1,21, 0, 2, 0.00,60.00,WinterDesignDay
10,72214.13787087228
46,0.0
70,0.0
345,0.0
992,0.0
1016,0.0
1496,493634152.72288969
1532,0.0
1556,0.0
2227,72000.0
2365,833483.936473899
4121,214.1378708721959
4133,40.345670080820799
4170,146.49394504991595
4230,492800668.7864158
4243,0.0
4354,0.0
4480,0.0
2,1, 1,21, 0, 3, 0.00,60.00,WinterDesignDay
10,72221.41399823968
46,0.0
70,0.0
345,0.0
992,0.0
1016,0.0
1496,557225619.020836
1532,0.0
1556,0.0
2227,72000.0
2365,833372.2904352646
4121,221.4139982395885
4133,40.345670080820799
4170,146.49394504991595
4230,556392246.7304008
4243,0.0
4354,0.0
4480,0.0
2,1, 1,21, 0, 4, 0.00,60.00,WinterDesignDay
10,72226.86325779477
46,0.0
70,0.0
345,0.0
992,0.0
1016,0.0
1496,609049076.3891876
1532,0.0
1556,0.0
2227,72000.0
2365,833413.0588825962
4121,226.86325779468519
4133,40.345670080820799
4170,146.49394504991595
4230,608215663.330305
4243,0.0
4354,0.0
4480,0.0
2,1, 1,21, 0, 5, 0.00,60.00,WinterDesignDay
10,72231.28068825443
46,0.0
70,0.0
345,0.0
992,0.0
1016,0.0
1496,656264894.439311
1532,0.0
1556,0.0
2227,72000.0
2365,833295.4676707607
4121,231.28068825435472
4133,40.345670080820799
4170,146.49394504991595
4230,655431598.9716402
4243,0.0
4354,0.0
4480,0.0
2,1, 1,21, 0, 6, 0.00,60.00,WinterDesignDay
10,9198086.681620863
46,0.0
70,0.0
345,0.0
992,0.0
1016,0.0
1496,874397395.3053399
1532,0.0
1556,0.0
2227,72000.0
2365,670267.1543730949
4121,258.30119276873389
4133,64.57759822522572
4170,146.49394504991595
4230,873727128.1509669
4243,0.0
4354,9125828.380428095
4480,0.0
2,1, 1,21, 0, 7, 0.00,60.00,WinterDesignDay
10,19217125.372524967
46,0.0
70,0.0
345,0.0
992,0.0
1016,0.0
1496,1783832067.4379283
1532,0.0
1556,0.0
2227,72000.0
2365,742907.4627525576
4121,395.530086988132
4133,111.32999028528667
4170,146.49394504991595
4230,1783089159.9751754
4243,0.0
4354,19144729.842437984
4480,0.0
2,1, 1,21, 0, 8, 0.00,60.00,WinterDesignDay
10,124617.51581519704
46,0.0
70,0.0
345,0.0
992,0.0
1016,0.0
1496,1461227952.2967919
1532,0.0
1556,0.0
2227,72000.0
2365,833457.1550126032
4121,307.96221934024728
4133,42.89273640867637
4170,146.49394504991595
4230,1460394495.1417793
4243,0.0
4354,52309.55359585672
4480,0.0
2,1, 1,21, 0, 9, 0.00,60.00,WinterDesignDay
10,72289.40068723227
46,0.0
70,0.0
345,0.0
992,0.0
1016,0.0
1496,1294478424.1892844
1532,0.0
1556,0.0
2227,72000.0
2365,833340.0266438732
4121,289.4006872322034
4133,41.22738526343595
4170,146.49394504991595
4230,1293645084.1626406
4243,0.0
4354,0.0
4480,0.0
2,1, 1,21, 0,10, 0.00,60.00,WinterDesignDay
10,72280.31123204463
46,0.0
70,0.0
345,0.0
992,0.0
1016,0.0
1496,1211036934.8101054
1532,0.0
1556,0.0
2227,72000.0
2365,833381.0126832338
4121,280.3112320445524
4133,40.71240481930727
4170,146.49394504991595
4230,1210203553.7974222
4243,0.0
4354,0.0
4480,0.0
2,1, 1,21, 0,11, 0.00,60.00,WinterDesignDay
10,72274.82933766698
46,0.0
70,0.0
345,0.0
992,0.0
1016,0.0
1496,1160282341.5109854
1532,0.0
1556,0.0
2227,72000.0
2365,833291.8244381773
4121,274.8293376669029
4133,40.56513441868883
4170,146.49394504991595
4230,1159449049.686547
4243,0.0
4354,0.0
4480,0.0
2,1, 1,21, 0,12, 0.00,60.00,WinterDesignDay
10,72271.16500376667
46,0.0
70,0.0
345,0.0
992,0.0
1016,0.0
1496,1126498937.4137502
1532,0.0
1556,0.0
2227,72000.0
2365,579602.2196133316
4121,271.1650037666028
4133,40.483417842733199
4170,146.49394504991595
4230,1125919335.1941369
4243,0.0
4354,0.0
4480,0.0
2,1, 1,21, 0,13, 0.00,60.00,WinterDesignDay
10,72268.62583127311
46,0.0
70,0.0
345,0.0
992,0.0
1016,0.0
1496,1103386340.888383
1532,0.0
1556,0.0
2227,72000.0
2365,833383.750509115
4121,268.6258312730564
4133,40.43197739779371
4170,146.49394504991595
4230,1102552957.137874
4243,0.0
4354,0.0
4480,0.0
2,1, 1,21, 0,14, 0.00,60.00,WinterDesignDay
10,72266.82362982043
46,0.0
70,0.0
345,0.0
992,0.0
1016,0.0
1496,1086963640.9899464
1532,0.0
1556,0.0
2227,72000.0
2365,833425.1938855285
4121,266.8236298203846
4133,40.39801618790645
4170,146.49394504991595
4230,1086130215.796061
4243,0.0
4354,0.0
4480,0.0
2,1, 1,21, 0,15, 0.00,60.00,WinterDesignDay
10,72265.55042292077
46,0.0
70,0.0
345,0.0
992,0.0
1016,0.0
1496,1075157438.832073
1532,0.0
1556,0.0
2227,72000.0
2365,833320.9510964581
4121,265.55042292069956
4133,40.37683018305458
4170,146.49394504991595
4230,1074324117.8809767
4243,0.0
4354,0.0
4480,0.0
2,1, 1,21, 0,16, 0.00,60.00,WinterDesignDay
10,72264.63500855942
46,0.0
70,0.0
345,0.0
992,0.0
1016,0.0
1496,1066752642.1768392
1532,0.0
1556,0.0
2227,72000.0
2365,833348.7334417065
4121,264.635008559349
4133,40.368474165799977
4170,146.49394504991595
4230,1065919293.4433975
4243,0.0
4354,0.0
4480,0.0
2,1, 1,21, 0,17, 0.00,60.00,WinterDesignDay
10,72263.96665898086
46,0.0
70,0.0
345,0.0
992,0.0
1016,0.0
1496,1060493888.2185429
1532,0.0
1556,0.0
2227,72000.0
2365,833388.897314084
4121,263.9666589808187
4133,40.3635751853227
4170,146.49394504991595
4230,1059660499.321229
4243,0.0
4354,0.0
4480,0.0
2,1, 1,21, 0,18, 0.00,60.00,WinterDesignDay
10,72263.47896599368
46,0.0
70,0.0
345,0.0
992,0.0
1016,0.0
1496,1055786001.9793121
1532,0.0
1556,0.0
2227,72000.0
2365,579580.7233607906
4121,263.4789659936139
4133,40.360839827556549
4170,146.49394504991595
4230,1055206421.2559513
4243,0.0
4354,0.0
4480,0.0
2,1, 1,21, 0,19, 0.00,60.00,WinterDesignDay
10,72263.13394814481
46,0.0
70,0.0
345,0.0
992,0.0
1016,0.0
1496,1052764251.636146
1532,0.0
1556,0.0
2227,72000.0
2365,833354.0156884063
4121,263.1339481447401
4133,40.35847193147498
4170,146.49394504991595
4230,1051930897.6204574
4243,0.0
4354,0.0
4480,0.0
2,1, 1,21, 0,20, 0.00,60.00,WinterDesignDay
10,72262.87882118923
46,0.0
70,0.0
345,0.0
992,0.0
1016,0.0
1496,1050471524.1655926
1532,0.0
1556,0.0
2227,72000.0
2365,833393.0371474775
4121,262.878821189153
4133,40.3570317971674
4170,146.49394504991595
4230,1049638131.1284452
4243,0.0
4354,0.0
4480,0.0
2,1, 1,21, 0,21, 0.00,60.00,WinterDesignDay
10,72262.68692086922
46,0.0
70,0.0
345,0.0
992,0.0
1016,0.0
1496,1048585703.4606462
1532,0.0
1556,0.0
2227,72000.0
2365,833433.6659749847
4121,262.68692086918699
4133,40.3564711324473
4170,146.49394504991595
4230,1047752269.7946714
4243,0.0
4354,0.0
4480,0.0
2,1, 1,21, 0,22, 0.00,60.00,WinterDesignDay
10,846507.227044638
46,0.0
70,0.0
345,0.0
992,0.0
1016,0.0
1496,844321081.2975863
1532,0.0
1556,0.0
2227,846244.6881660803
2365,833469.0414334259
4121,262.5388785575731
4133,40.356063943968297
4170,146.49394504991595
4230,843487612.2561529
4243,0.0
4354,0.0
4480,0.0
2,1, 1,21, 0,23, 0.00,60.00,WinterDesignDay
10,72186.86230015157
46,0.0
70,0.0
345,0.0
992,0.0
1016,0.0
1496,354594763.75167688
1532,0.0
1556,0.0
2227,72000.0
2365,774043.9782866283
4121,186.8623001515009
4133,40.36835510158497
4170,146.49394504991595
4230,353820719.7733902
4243,0.0
4354,0.0
4480,0.0
2,1, 1,21, 0,24, 0.00,60.00,WinterDesignDay
10,72192.7500349797
46,0.0
70,0.0
345,0.0
992,0.0
1016,0.0
1496,422988174.39775028
1532,0.0
1556,0.0
2227,72000.0
2365,638971.6086400744
4121,192.75003497964299
4133,40.47840370719746
4170,146.49394504991595
4230,422349202.7891102
4243,0.0
4354,0.0
4480,0.0
1,TORRANCE-MUNICIPAL AUG CLG 0.4% CONDNS DB=>MCWB,  33.80,-118.33,  -8.00,  27.00
2,1, 8,21, 0, 1, 0.00,60.00,SummerDesignDay
10,691456814.500728
46,249737579.99999974
70,96701579.99999997
345,153035999.9999997
992,231449399.99999977
1016,231449399.99999977
1496,63803965.6432649
1532,57764642.17263899
1556,57764642.17263899
2227,17736221.840623034
2365,6039323.470625903
4121,239.20239953822608
4133,40.430599067968227
4170,146.49394504991595
4230,0.0
4243,0.0
4354,192533373.45770548
4480,0.0
2,1, 8,21, 0, 2, 0.00,60.00,SummerDesignDay
10,687088332.6224461
46,249737579.99999974
70,96701579.99999997
345,153035999.9999997
992,231449399.99999977
1016,231449399.99999977
1496,64133870.816873397
1532,57764642.17263899
1556,57764642.17263899
2227,17797715.768466239
2365,6369228.644234405
4121,238.3545980757547
4133,40.44325304992499
4170,146.49394504991595
4230,0.0
4243,0.0
4354,188103398.4993817
4480,0.0
2,1, 8,21, 0, 3, 0.00,60.00,SummerDesignDay
10,685169614.8096109
46,249737579.99999974
70,96701579.99999997
345,153035999.9999997