Program Version,EnergyPlus, Version 9.0.1-bb7ca4f0da, YMD=2019.12.18 15:57
1,5,Environment Title[],Latitude[deg],Longitude[deg],Time Zone[],Elevation[m]
2,8,Day of Simulation[],Month[],Day of Month[],DST Indicator[1=yes 0=no],Hour[],StartMinute[],EndMinute[],DayType
3,5,Cumulative Day of Simulation[],Month[],Day of Month[],DST Indicator[1=yes 0=no],DayType  ! When Daily Report Variables Requested
4,2,Cumulative Days of Simulation[],Month[]  ! When Monthly Report Variables Requested
5,1,Cumulative Days of Simulation[] ! When Run Period Report Variables Requested
6,1,Calendar Year of Simulation[] ! When Annual Report Variables Requested
7,1,Environment,Site Outdoor Air Drybulb Temperature [C] !TimeStep
4438,1,BASE BLR,Boiler Heating Rate [W] !Hourly
End of Data Dictionary
1,TORRANCE-MUNICIPAL ANN CLG 0.4% CONDNS DB=>MCWB,  33.80,-118.33,  -8.00,  27.00
2,1, 8,21, 0, 1, 0.00,15.00,SummerDesignDay
7,24.755000000000004
2,1, 8,21, 0, 1,15.00,30.00,SummerDesignDay
7,24.650000000000003
2,1, 8,21, 0, 1,30.00,45.00,SummerDesignDay
7,24.545
2,1, 8,21, 0, 1,45.00,60.00,SummerDesignDay
7,24.44
2,1, 8,21, 0, 1, 0.00,60.00,SummerDesignDay
4438,0.0
2,1, 8,21, 0, 2, 0.00,15.00,SummerDesignDay
7,24.37
2,1, 8,21, 0, 2,15.00,30.00,SummerDesignDay
7,24.3
2,1, 8,21, 0, 2,30.00,45.00,SummerDesignDay
7,24.23
2,1, 8,21, 0, 2,45.00,60.00,SummerDesignDay
7,24.16
2,1, 8,21, 0, 2, 0.00,60.00,SummerDesignDay
4438,0.0
2,1, 8,21, 0, 3, 0.00,15.00,SummerDesignDay
7,24.1075
2,1, 8,21, 0, 3,15.00,30.00,SummerDesignDay
7,24.055
2,1, 8,21, 0, 3,30.00,45.00,SummerDesignDay
7,24.0025
2,1, 8,21, 0, 3,45.00,60.00,SummerDesignDay
7,23.950000000000004
2,1, 8,21, 0, 3, 0.00,60.00,SummerDesignDay
4438,0.0
2,1, 8,21, 0, 4, 0.00,15.00,SummerDesignDay
7,23.8975
2,1, 8,21, 0, 4,15.00,30.00,SummerDesignDay
7,23.845000000000004
2,1, 8,21, 0, 4,30.00,45.00,SummerDesignDay
7,23.792500000000005
2,1, 8,21, 0, 4,45.00,60.00,SummerDesignDay
7,23.740000000000003
2,1, 8,21, 0, 4, 0.00,60.00,SummerDesignDay
4438,0.0
2,1, 8,21, 0, 5, 0.00,15.00,SummerDesignDay
7,23.705000000000003
2,1, 8,21, 0, 5,15.00,30.00,SummerDesignDay
7,23.67
2,1, 8,21, 0, 5,30.00,45.00,SummerDesignDay
7,23.635
2,1, 8,21, 0, 5,45.00,60.00,SummerDesignDay
7,23.6
2,1, 8,21, 0, 5, 0.00,60.00,SummerDesignDay
4438,0.0
2,1, 8,21, 0, 6, 0.00,15.00,SummerDesignDay
7,23.635
2,1, 8,21, 0, 6,15.00,30.00,SummerDesignDay
7,23.67
2,1, 8,21, 0, 6,30.00,45.00,SummerDesignDay
7,23.705000000000003
2,1, 8,21, 0, 6,45.00,60.00,SummerDesignDay
7,23.740000000000003
2,1, 8,21, 0, 6, 0.00,60.00,SummerDesignDay
4438,0.0
2,1, 8,21, 0, 7, 0.00,15.00,SummerDesignDay
7,23.8625
2,1, 8,21, 0, 7,15.00,30.00,SummerDesignDay
7,23.985
2,1, 8,21, 0, 7,30.00,45.00,SummerDesignDay
7,24.1075
2,1, 8,21, 0, 7,45.00,60.00,SummerDesignDay
7,24.23
2,1, 8,21, 0, 7, 0.00,60.00,SummerDesignDay
4438,0.0
2,1, 8,21, 0, 8, 0.00,15.00,SummerDesignDay
7,24.527500000000005
2,1, 8,21, 0, 8,15.00,30.00,SummerDesignDay
7,24.825000000000004
2,1, 8,21, 0, 8,30.00,45.00,SummerDesignDay
7,25.122500000000004
2,1, 8,21, 0, 8,45.00,60.00,SummerDesignDay
7,25.42
2,1, 8,21, 0, 8, 0.00,60.00,SummerDesignDay
4438,0.0
2,1, 8,21, 0, 9, 0.00,15.00,SummerDesignDay
7,25.7525
2,1, 8,21, 0, 9,15.00,30.00,SummerDesignDay
7,26.085
2,1, 8,21, 0, 9,30.00,45.00,SummerDesignDay
7,26.4175
2,1, 8,21, 0, 9,45.00,60.00,SummerDesignDay
7,26.75
2,1, 8,21, 0, 9, 0.00,60.00,SummerDesignDay
4438,0.0
2,1, 8,21, 0,10, 0.00,15.00,SummerDesignDay
7,27.0475
2,1, 8,21, 0,10,15.00,30.00,SummerDesignDay
7,27.345000000000004
2,1, 8,21, 0,10,30.00,45.00,SummerDesignDay
7,27.642500000000003
2,1, 8,21, 0,10,45.00,60.00,SummerDesignDay
7,27.94
2,1, 8,21, 0,10, 0.00,60.00,SummerDesignDay
4438,0.0
2,1, 8,21, 0,11, 0.00,15.00,SummerDesignDay
7,28.2025
2,1, 8,21, 0,11,15.00,30.00,SummerDesignDay
7,28.465000000000005
2,1, 8,21, 0,11,30.00,45.00,SummerDesignDay
7,28.727500000000004
2,1, 8,21, 0,11,45.00,60.00,SummerDesignDay
7,28.990000000000003
2,1, 8,21, 0,11, 0.00,60.00,SummerDesignDay
4438,0.0
2,1, 8,21, 0,12, 0.00,15.00,SummerDesignDay
7,29.165000000000004
2,1, 8,21, 0,12,15.00,30.00,SummerDesignDay
7,29.34
2,1, 8,21, 0,12,30.00,45.00,SummerDesignDay
7,29.515
2,1, 8,21, 0,12,45.00,60.00,SummerDesignDay
7,29.69
2,1, 8,21, 0,12, 0.00,60.00,SummerDesignDay
4438,0.0
2,1, 8,21, 0,13, 0.00,15.00,SummerDesignDay
7,29.830000000000003
2,1, 8,21, 0,13,15.00,30.00,SummerDesignDay
7,29.970000000000004
2,1, 8,21, 0,13,30.00,45.00,SummerDesignDay
7,30.110000000000004
2,1, 8,21, 0,13,45.00,60.00,SummerDesignDay
7,30.25
2,1, 8,21, 0,13, 0.00,60.00,SummerDesignDay
4438,0.0
2,1, 8,21, 0,14, 0.00,15.00,SummerDesignDay
7,30.337500000000003
2,1, 8,21, 0,14,15.00,30.00,SummerDesignDay
7,30.425
2,1, 8,21, 0,14,30.00,45.00,SummerDesignDay
7,30.512500000000004
2,1, 8,21, 0,14,45.00,60.00,SummerDesignDay
7,30.6
2,1, 8,21, 0,14, 0.00,60.00,SummerDesignDay
4438,0.0
2,1, 8,21, 0,15, 0.00,15.00,SummerDesignDay
7,30.6
2,1, 8,21, 0,15,15.00,30.00,SummerDesignDay
7,30.6
2,1, 8,21, 0,15,30.00,45.00,SummerDesignDay
7,30.6
2,1, 8,21, 0,15,45.00,60.00,SummerDesignDay
7,30.6
2,1, 8,21, 0,15, 0.00,60.00,SummerDesignDay
4438,0.0
2,1, 8,21, 0,16, 0.00,15.00,SummerDesignDay
7,30.495
2,1, 8,21, 0,16,15.00,30.00,SummerDesignDay
7,30.39
2,1, 8,21, 0,16,30.00,45.00,SummerDesignDay
7,30.285
2,1, 8,21, 0,16,45.00,60.00,SummerDesignDay
7,30.18
2,1, 8,21, 0,16, 0.00,60.00,SummerDesignDay
4438,0.0
2,1, 8,21, 0,17, 0.00,15.00,SummerDesignDay
7,30.040000000000004
2,1, 8,21, 0,17,15.00,30.00,SummerDesignDay
7,29.900000000000003
2,1, 8,21, 0,17,30.00,45.00,SummerDesignDay
7,29.76
2,1, 8,21, 0,17,45.00,60.00,SummerDesignDay
7,29.62
2,1, 8,21, 0,17, 0.00,60.00,SummerDesignDay
4438,0.0
2,1, 8,21, 0,18, 0.00,15.00,SummerDesignDay
7,29.445
2,1, 8,21, 0,18,15.00,30.00,SummerDesignDay
7,29.270000000000004
2,1, 8,21, 0,18,30.00,45.00,SummerDesignDay
7,29.095000000000004
2,1, 8,21, 0,18,45.00,60.00,SummerDesignDay
7,28.92
2,1, 8,21, 0,18, 0.00,60.00,SummerDesignDay
4438,0.0
2,1, 8,21, 0,19, 0.00,15.00,SummerDesignDay
7,28.657500000000004
2,1, 8,21, 0,19,15.00,30.00,SummerDesignDay
7,28.395000000000004
2,1, 8,21, 0,19,30.00,45.00,SummerDesignDay
7,28.1325
2,1, 8,21, 0,19,45.00,60.00,SummerDesignDay
7,27.87
2,1, 8,21, 0,19, 0.00,60.00,SummerDesignDay
4438,0.0
2,1, 8,21, 0,20, 0.00,15.00,SummerDesignDay
7,27.677500000000003
2,1, 8,21, 0,20,15.00,30.00,SummerDesignDay
7,27.485
2,1, 8,21, 0,20,30.00,45.00,SummerDesignDay
7,27.2925
2,1, 8,21, 0,20,45.00,60.00,SummerDesignDay
7,27.1
2,1, 8,21, 0,20, 0.00,60.00,SummerDesignDay
4438,0.0
2,1, 8,21, 0,21, 0.00,15.00,SummerDesignDay
7,26.942500000000004
2,1, 8,21, 0,21,15.00,30.00,SummerDesignDay
7,26.785000000000005
2,1, 8,21, 0,21,30.00,45.00,SummerDesignDay
7,26.6275
2,1, 8,21, 0,21,45.00,60.00,SummerDesignDay
7,26.470000000000004
2,1, 8,21, 0,21, 0.00,60.00,SummerDesignDay
4438,0.0
2,1, 8,21, 0,22, 0.00,15.00,SummerDesignDay
7,26.3125
2,1, 8,21, 0,22,15.00,30.00,SummerDesignDay
7,26.155
2,1, 8,21, 0,22,30.00,45.00,SummerDesignDay
7,25.997500000000004
2,1, 8,21, 0,22,45.00,60.00,SummerDesignDay
7,25.84
2,1, 8,21, 0,22, 0.00,60.00,SummerDesignDay
4438,0.0
2,1, 8,21, 0,23, 0.00,15.00,SummerDesignDay
7,25.7175
2,1, 8,21, 0,23,15.00,30.00,SummerDesignDay
7,25.595
2,1, 8,21, 0,23,30.00,45.00,SummerDesignDay
7,25.4725
2,1, 8,21, 0,23,45.00,60.00,SummerDesignDay
7,25.35
2,1, 8,21, 0,23, 0.00,60.00,SummerDesignDay
4438,0.0
2,1, 8,21, 0,24, 0.00,15.00,SummerDesignDay
7,25.227500000000004
2,1, 8,21, 0,24,15.00,30.00,SummerDesignDay
7,25.105000000000005
2,1, 8,21, 0,24,30.00,45.00,SummerDesignDay
7,24.9825
2,1, 8,21, 0,24,45.00,60.00,SummerDesignDay
7,24.860000000000004
2,1, 8,21, 0,24, 0.00,60.00,SummerDesignDay
4438,0.0
1,TORRANCE-MUNICIPAL ANN CLG 0.4% CONDNS DP=>MCDB,  33.80,-118.33,  -8.00,  27.00
2,1, 8,21, 0, 1, 0.00,15.00,SummerDesignDay
7,17.555
2,1, 8,21, 0, 1,15.00,30.00,SummerDesignDay
7,17.45
2,1, 8,21, 0, 1,30.00,45.00,SummerDesignDay
7,17.345
2,1, 8,21, 0, 1,45.00,60.00,SummerDesignDay
7,17.24
2,1, 8,21, 0, 1, 0.00,60.00,SummerDesignDay
4438,0.0
2,1, 8,21, 0, 2, 0.00,15.00,SummerDesignDay
7,17.169999999999999
2,1, 8,21, 0, 2,15.00,30.00,SummerDesignDay
7,17.099999999999999
2,1, 8,21, 0, 2,30.00,45.00,SummerDesignDay
7,17.029999999999999
2,1, 8,21, 0, 2,45.00,60.00,SummerDesignDay
7,16.959999999999999
2,1, 8,21, 0, 2, 0.00,60.00,SummerDesignDay
4438,0.0
2,1, 8,21, 0, 3, 0.00,15.00,SummerDesignDay
7,16.9075
2,1, 8,21, 0, 3,15.00,30.00,SummerDesignDay
7,16.854999999999998
2,1, 8,21, 0, 3,30.00,45.00,SummerDesignDay
7,16.8025
2,1, 8,21, 0, 3,45.00,60.00,SummerDesignDay
7,16.75
2,1, 8,21, 0, 3, 0.00,60.00,SummerDesignDay
4438,0.0
2,1, 8,21, 0, 4, 0.00,15.00,SummerDesignDay
7,16.697499999999999
2,1, 8,21, 0, 4,15.00,30.00,SummerDesignDay
7,16.645
2,1, 8,21, 0, 4,30.00,45.00,SummerDesignDay
7,16.5925
2,1, 8,21, 0, 4,45.00,60.00,SummerDesignDay
7,16.54
2,1, 8,21, 0, 4, 0.00,60.00,SummerDesignDay
4438,0.0
2,1, 8,21, 0, 5, 0.00,15.00,SummerDesignDay
7,16.505
2,1, 8,21, 0, 5,15.00,30.00,SummerDesignDay
7,16.47
2,1, 8,21, 0, 5,30.00,45.00,SummerDesignDay
7,16.435
2,1, 8,21, 0, 5,45.00,60.00,SummerDesignDay
7,16.4
2,1, 8,21, 0, 5, 0.00,60.00,SummerDesignDay
4438,0.0
2,1, 8,21, 0, 6, 0.00,15.00,SummerDesignDay
7,16.435
2,1, 8,21, 0, 6,15.00,30.00,SummerDesignDay
7,16.47
2,1, 8,21, 0, 6,30.00,45.00,SummerDesignDay
7,16.505
2,1, 8,21, 0, 6,45.00,60.00,SummerDesignDay
7,16.54
2,1, 8,21, 0, 6, 0.00,60.00,SummerDesignDay
4438,0.0
2,1, 8,21, 0, 7, 0.00,15.00,SummerDesignDay
7,16.662499999999999
2,1, 8,21, 0, 7,15.00,30.00,SummerDesignDay
7,16.784999999999998
2,1, 8,21, 0, 7,30.00,45.00,SummerDesignDay
7,16.9075
2,1, 8,21, 0, 7,45.00,60.00,SummerDesignDay
7,17.029999999999999
2,1, 8,21, 0, 7, 0.00,60.00,SummerDesignDay
4438,182.63701341192493
2,1, 8,21, 0, 8, 0.00,15.00,SummerDesignDay
7,17.3275
2,1, 8,21, 0, 8,15.00,30.00,SummerDesignDay
7,17.625
2,1, 8,21, 0, 8,30.00,45.00,SummerDesignDay
7,17.9225
2,1, 8,21, 0, 8,45.00,60.00,SummerDesignDay
7,18.22
2,1, 8,21, 0, 8, 0.00,60.00,SummerDesignDay
4438,0.0
2,1, 8,21, 0, 9, 0.00,15.00,SummerDesignDay
7,18.5525
2,1, 8,21, 0, 9,15.00,30.00,SummerDesignDay
7,18.884999999999999
2,1, 8,21, 0, 9,30.00,45.00,SummerDesignDay
7,19.217499999999999
2,1, 8,21, 0, 9,45.00,60.00,SummerDesignDay
7,19.549999999999998
2,1, 8,21, 0, 9, 0.00,60.00,SummerDesignDay
4438,0.0
2,1, 8,21, 0,10, 0.00,15.00,SummerDesignDay
7,19.847499999999998
2,1, 8,21, 0,10,15.00,30.00,SummerDesignDay
7,20.145
2,1, 8,21, 0,10,30.00,45.00,SummerDesignDay
7,20.4425
2,1, 8,21, 0,10,45.00,60.00,SummerDesignDay
7,20.74
2,1, 8,21, 0,10, 0.00,60.00,SummerDesignDay
4438,0.0
2,1, 8,21, 0,11, 0.00,15.00,SummerDesignDay
7,21.002499999999999
2,1, 8,21, 0,11,15.00,30.00,SummerDesignDay
7,21.265
2,1, 8,21, 0,11,30.00,45.00,SummerDesignDay
7,21.5275
2,1, 8,21, 0,11,45.00,60.00,SummerDesignDay
7,21.79
2,1, 8,21, 0,11, 0.00,60.00,SummerDesignDay
4438,0.0
2,1, 8,21, 0,12, 0.00,15.00,SummerDesignDay
7,21.965
2,1, 8,21, 0,12,15.00,30.00,SummerDesignDay
7,22.139999999999998
2,1, 8,21, 0,12,30.00,45.00,SummerDesignDay
7,22.314999999999999
2,1, 8,21, 0,12,45.00,60.00,SummerDesignDay
7,22.49
2,1, 8,21, 0,12, 0.00,60.00,SummerDesignDay
4438,0.0
2,1, 8,21, 0,13, 0.00,15.00,SummerDesignDay
7,22.63
2,1, 8,21, 0,13,15.00,30.00,SummerDesignDay
7,22.77
2,1, 8,21, 0,13,30.00,45.00,SummerDesignDay
7,22.91
2,1, 8,21, 0,13,45.00,60.00,SummerDesignDay
7,23.049999999999998
2,1, 8,21, 0,13, 0.00,60.00,SummerDesignDay
4438,0.0
2,1, 8,21, 0,14, 0.00,15.00,SummerDesignDay
7,23.1375
2,1, 8,21, 0,14,15.00,30.00,SummerDesignDay
7,23.224999999999999
2,1, 8,21, 0,14,30.00,45.00,SummerDesignDay
7,23.3125
2,1, 8,21, 0,14,45.00,60.00,SummerDesignDay
7,23.4
2,1, 8,21, 0,14, 0.00,60.00,SummerDesignDay
4438,20.86266018246092
2,1, 8,21, 0,15, 0.00,15.00,SummerDesignDay
7,23.4
2,1, 8,21, 0,15,15.00,30.00,SummerDesignDay
7,23.4
2,1, 8,21, 0,15,30.00,45.00,SummerDesignDay
7,23.4
2,1, 8,21, 0,15,45.00,60.00,SummerDesignDay
7,23.4
2,1, 8,21, 0,15, 0.00,60.00,SummerDesignDay
4438,35.80156758711266
2,1, 8,21, 0,16, 0.00,15.00,SummerDesignDay
7,23.294999999999999
2,1, 8,21, 0,16,15.00,30.00,SummerDesignDay
7,23.189999999999999
2,1, 8,21, 0,16,30.00,45.00,SummerDesignDay
7,23.084999999999999
2,1, 8,21, 0,16,45.00,60.00,SummerDesignDay
7,22.979999999999998
2,1, 8,21, 0,16, 0.00,60.00,SummerDesignDay
4438,47.45626998753428
2,1, 8,21, 0,17, 0.00,15.00,SummerDesignDay
7,22.84
2,1, 8,21, 0,17,15.00,30.00,SummerDesignDay
7,22.7
2,1, 8,21, 0,17,30.00,45.00,SummerDesignDay
7,22.56
2,1, 8,21, 0,17,45.00,60.00,SummerDesignDay
7,22.419999999999999
2,1, 8,21, 0,17, 0.00,60.00,SummerDesignDay
4438,63.79654798202431
2,1, 8,21, 0,18, 0.00,15.00,SummerDesignDay
7,22.244999999999999
2,1, 8,21, 0,18,15.00,30.00,SummerDesignDay
7,22.07
2,1, 8,21, 0,18,30.00,45.00,SummerDesignDay
7,21.895
2,1, 8,21, 0,18,45.00,60.00,SummerDesignDay
7,21.72
2,1, 8,21, 0,18, 0.00,60.00,SummerDesignDay
4438,86.85903318942235
2,1, 8,21, 0,19, 0.00,15.00,SummerDesignDay
7,21.4575
2,1, 8,21, 0,19,15.00,30.00,SummerDesignDay
7,21.195
2,1, 8,21, 0,19,30.00,45.00,SummerDesignDay
7,20.932499999999999
2,1, 8,21, 0,19,45.00,60.00,SummerDesignDay
7,20.669999999999999
2,1, 8,21, 0,19, 0.00,60.00,SummerDesignDay
4438,119.80630130454412
2,1, 8,21, 0,20, 0.00,15.00,SummerDesignDay
7,20.4775
2,1, 8,21, 0,20,15.00,30.00,SummerDesignDay
7,20.284999999999998
2,1, 8,21, 0,20,30.00,45.00,SummerDesignDay
7,20.092499999999999
2,1, 8,21, 0,20,45.00,60.00,SummerDesignDay
7,19.9
2,1, 8,21, 0,20, 0.00,60.00,SummerDesignDay
4438,150.3740313031444
2,1, 8,21, 0,21, 0.00,15.00,SummerDesignDay
7,19.7425
2,1, 8,21, 0,21,15.00,30.00,SummerDesignDay
7,19.585
2,1, 8,21, 0,21,30.00,45.00,SummerDesignDay
7,19.4275
2,1, 8,21, 0,21,45.00,60.00,SummerDesignDay
7,19.27
2,1, 8,21, 0,21, 0.00,60.00,SummerDesignDay
4438,173.7730355011407
2,1, 8,21, 0,22, 0.00,15.00,SummerDesignDay
7,19.112499999999998
2,1, 8,21, 0,22,15.00,30.00,SummerDesignDay
7,18.955
2,1, 8,21, 0,22,30.00,45.00,SummerDesignDay
7,18.7975
2,1, 8,21, 0,22,45.00,60.00,SummerDesignDay
7,18.639999999999998
2,1, 8,21, 0,22, 0.00,60.00,SummerDesignDay
4438,0.0
2,1, 8,21, 0,23, 0.00,15.00,SummerDesignDay
7,18.5175
2,1, 8,21, 0,23,15.00,30.00,SummerDesignDay
7,18.394999999999997
2,1, 8,21, 0,23,30.00,45.00,SummerDesignDay
7,18.272499999999999
2,1, 8,21, 0,23,45.00,60.00,SummerDesignDay
7,18.15
2,1, 8,21, 0,23, 0.00,60.00,SummerDesignDay
4438,0.0
2,1, 8,21, 0,24, 0.00,15.00,SummerDesignDay
7,18.0275
2,1, 8,21, 0,24,15.00,30.00,SummerDesignDay
7,17.905
2,1, 8,21, 0,24,30.00,45.00,SummerDesignDay
7,17.7825
2,1, 8,21, 0,24,45.00,60.00,SummerDesignDay
7,17.66
2,1, 8,21, 0,24, 0.00,60.00,SummerDesignDay
4438,0.0
1,TORRANCE-MUNICIPAL ANN HTG 99.6% CONDNS DB,  33.80,-118.33,  -8.00,  27.00
2,1, 1,21, 0, 1, 0.00,15.00,WinterDesignDay
7,3.0
2,1, 1,21, 0, 1,15.00,30.00,WinterDesignDay
7,3.0
2,1, 1,21, 0, 1,30.00,45.00,WinterDesignDay
7,3.0
2,1, 1,21, 0, 1,45.00,60.00,WinterDesignDay
7,3.0
2,1, 1,21, 0, 1, 0.00,60.00,WinterDesignDay
4438,52508.082477826545
2,1, 1,21, 0, 2, 0.00,15.00,WinterDesignDay
7,3.0
2,1, 1,21, 0, 2,15.00,30.00,WinterDesignDay
7,3.0
2,1, 1,21, 0, 2,30.00,45.00,WinterDesignDay
7,3.0
2,1, 1,21, 0, 2,45.00,60.00,WinterDesignDay
7,3.0
2,1, 1,21, 0, 2, 0.00,60.00,WinterDesignDay
4438,54578.11816179834
2,1, 1,21, 0, 3, 0.00,15.00,WinterDesignDay
7,3.0
2,1, 1,21, 0, 3,15.00,30.00,WinterDesignDay
7,3.0
2,1, 1,21, 0, 3,30.00,45.00,WinterDesignDay
7,3.0
2,1, 1,21, 0, 3,45.00,60.00,WinterDesignDay
7,3.0
2,1, 1,21, 0, 3, 0.00,60.00,WinterDesignDay
4438,57328.06652030517
2,1, 1,21, 0, 4, 0.00,15.00,WinterDesignDay
7,3.0
2,1, 1,21, 0, 4,15.00,30.00,WinterDesignDay
7,3.0
2,1, 1,21, 0, 4,30.00,45.00,WinterDesignDay
7,3.0
2,1, 1,21, 0, 4,45.00,60.00,WinterDesignDay
7,3.0
2,1, 1,21, 0, 4, 0.00,60.00,WinterDesignDay
4438,60318.71667249727
2,1, 1,21, 0, 5, 0.00,15.00,WinterDesignDay
7,3.0
2,1, 1,21, 0, 5,15.00,30.00,WinterDesignDay
7,3.0
2,1, 1,21, 0, 5,30.00,45.00,WinterDesignDay
7,3.0
2,1, 1,21, 0, 5,45.00,60.00,WinterDesignDay
7,3.0
2,1, 1,21, 0, 5, 0.00,60.00,WinterDesignDay
4438,63789.39524229716
2,1, 1,21, 0, 6, 0.00,15.00,WinterDesignDay
7,3.0
2,1, 1,21, 0, 6,15.00,30.00,WinterDesignDay
7,3.0
2,1, 1,21, 0, 6,30.00,45.00,WinterDesignDay
7,3.0
2,1, 1,21, 0, 6,45.00,60.00,WinterDesignDay
7,3.0
2,1, 1,21, 0, 6, 0.00,60.00,WinterDesignDay
4438,112112.80002260854
2,1, 1,21, 0, 7, 0.00,15.00,WinterDesignDay
7,3.0
2,1, 1,21, 0, 7,15.00,30.00,WinterDesignDay
7,3.0
2,1, 1,21, 0, 7,30.00,45.00,WinterDesignDay
7,3.0
2,1, 1,21, 0, 7,45.00,60.00,WinterDesignDay
7,3.0
2,1, 1,21, 0, 7, 0.00,60.00,WinterDesignDay
4438,181569.10290947755
2,1, 1,21, 0, 8, 0.00,15.00,WinterDesignDay
7,3.0
2,1, 1,21, 0, 8,15.00,30.00,WinterDesignDay
7,3.0
2,1, 1,21, 0, 8,30.00,45.00,WinterDesignDay
7,3.0
2,1, 1,21, 0, 8,45.00,60.00,WinterDesignDay
7,3.0
2,1, 1,21, 0, 8, 0.00,60.00,WinterDesignDay
4438,134985.48684973274
2,1, 1,21, 0, 9, 0.00,15.00,WinterDesignDay
7,3.0
2,1, 1,21, 0, 9,15.00,30.00,WinterDesignDay
7,3.0
2,1, 1,21, 0, 9,30.00,45.00,WinterDesignDay
7,3.0
2,1, 1,21, 0, 9,45.00,60.00,WinterDesignDay
7,3.0
2,1, 1,21, 0, 9, 0.00,60.00,WinterDesignDay
4438,122470.98579508436
2,1, 1,21, 0,10, 0.00,15.00,WinterDesignDay
7,3.0
2,1, 1,21, 0,10,15.00,30.00,WinterDesignDay
7,3.0
2,1, 1,21, 0,10,30.00,45.00,WinterDesignDay
7,3.0
2,1, 1,21, 0,10,45.00,60.00,WinterDesignDay
7,3.0
2,1, 1,21, 0,10, 0.00,60.00,WinterDesignDay
4438,116452.80213767392
2,1, 1,21, 0,11, 0.00,15.00,WinterDesignDay
7,3.0
2,1, 1,21, 0,11,15.00,30.00,WinterDesignDay
7,3.0
2,1, 1,21, 0,11,30.00,45.00,WinterDesignDay
7,3.0
2,1, 1,21, 0,11,45.00,60.00,WinterDesignDay
7,3.0
2,1, 1,21, 0,11, 0.00,60.00,WinterDesignDay
4438,113016.93162970527
2,1, 1,21, 0,12, 0.00,15.00,WinterDesignDay
7,3.0
2,1, 1,21, 0,12,15.00,30.00,WinterDesignDay
7,3.0
2,1, 1,21, 0,12,30.00,45.00,WinterDesignDay
7,3.0
2,1, 1,21, 0,12,45.00,60.00,WinterDesignDay
7,3.0
2,1, 1,21, 0,12, 0.00,60.00,WinterDesignDay
4438,110854.39501994138
2,1, 1,21, 0,13, 0.00,15.00,WinterDesignDay
7,3.0
2,1, 1,21, 0,13,15.00,30.00,WinterDesignDay
7,3.0
2,1, 1,21, 0,13,30.00,45.00,WinterDesignDay
7,3.0
2,1, 1,21, 0,13,45.00,60.00,WinterDesignDay
7,3.0
2,1, 1,21, 0,13, 0.00,60.00,WinterDesignDay
4438,109333.6354371132
2,1, 1,21, 0,14, 0.00,15.00,WinterDesignDay
7,3.0
2,1, 1,21, 0,14,15.00,30.00,WinterDesignDay
7,3.0
2,1, 1,21, 0,14,30.00,45.00,WinterDesignDay
7,3.0
2,1, 1,21, 0,14,45.00,60.00,WinterDesignDay
7,3.0
2,1, 1,21, 0,14, 0.00,60.00,WinterDesignDay
4438,108301.6297812628
2,1, 1,21, 0,15, 0.00,15.00,WinterDesignDay
7,3.0
2,1, 1,21, 0,15,15.00,30.00,WinterDesignDay
7,3.0
2,1, 1,21, 0,15,30.00,45.00,WinterDesignDay
7,3.0
2,1, 1,21, 0,15,45.00,60.00,WinterDesignDay
7,3.0
2,1, 1,21, 0,15, 0.00,60.00,WinterDesignDay
4438,107526.43051448847
2,1, 1,21, 0,16, 0.00,15.00,WinterDesignDay
7,3.0
2,1, 1,21, 0,16,15.00,30.00,WinterDesignDay
7,3.0
2,1, 1,21, 0,16,30.00,45.00,WinterDesignDay
7,3.0
2,1, 1,21, 0,16,45.00,60.00,WinterDesignDay
7,3.0
2,1, 1,21, 0,16, 0.00,60.00,WinterDesignDay
4438,107003.52743159069
2,1, 1,21, 0,17, 0.00,15.00,WinterDesignDay
7,3.0
2,1, 1,21, 0,17,15.00,30.00,WinterDesignDay
7,3.0
2,1, 1,21, 0,17,30.00,45.00,WinterDesignDay
7,3.0
2,1, 1,21, 0,17,45.00,60.00,WinterDesignDay
7,3.0
2,1, 1,21, 0,17, 0.00,60.00,WinterDesignDay
4438,106593.4703176861
2,1, 1,21, 0,18, 0.00,15.00,WinterDesignDay
7,3.0
2,1, 1,21, 0,18,15.00,30.00,WinterDesignDay
7,3.0
2,1, 1,21, 0,18,30.00,45.00,WinterDesignDay
7,3.0
2,1, 1,21, 0,18,45.00,60.00,WinterDesignDay
7,3.0
2,1, 1,21, 0,18, 0.00,60.00,WinterDesignDay
4438,106324.86244483905
2,1, 1,21, 0,19, 0.00,15.00,WinterDesignDay
7,3.0
2,1, 1,21, 0,19,15.00,30.00,WinterDesignDay
7,3.0
2,1, 1,21, 0,19,30.00,45.00,WinterDesignDay
7,3.0
2,1, 1,21, 0,19,45.00,60.00,WinterDesignDay
7,3.0
2,1, 1,21, 0,19, 0.00,60.00,WinterDesignDay
4438,106102.65098588441
2,1, 1,21, 0,20, 0.00,15.00,WinterDesignDay
7,3.0
2,1, 1,21, 0,20,15.00,30.00,WinterDesignDay
7,3.0
2,1, 1,21, 0,20,30.00,45.00,WinterDesignDay
7,3.0
2,1, 1,21, 0,20,45.00,60.00,WinterDesignDay
7,3.0
2,1, 1,21, 0,20, 0.00,60.00,WinterDesignDay
4438,105972.07094272413
2,1, 1,21, 0,21, 0.00,15.00,WinterDesignDay
7,3.0
2,1, 1,21, 0,21,15.00,30.00,WinterDesignDay
7,3.0
2,1, 1,21, 0,21,30.00,45.00,WinterDesignDay
7,3.0
2,1, 1,21, 0,21,45.00,60.00,WinterDesignDay
7,3.0
2,1, 1,21, 0,21, 0.00,60.00,WinterDesignDay
4438,105834.07767919955
2,1, 1,21, 0,22, 0.00,15.00,WinterDesignDay
7,3.0
2,1, 1,21, 0,22,15.00,30.00,WinterDesignDay
7,3.0
2,1, 1,21, 0,22,30.00,45.00,WinterDesignDay
7,3.0
2,1, 1,21, 0,22,45.00,60.00,WinterDesignDay
7,3.0
2,1, 1,21, 0,22, 0.00,60.00,WinterDesignDay
4438,57293.13900610649
2,1, 1,21, 0,23, 0.00,15.00,WinterDesignDay
7,3.0
2,1, 1,21, 0,23,15.00,30.00,WinterDesignDay
7,3.0
2,1, 1,21, 0,23,30.00,45.00,WinterDesignDay
7,3.0
2,1, 1,21, 0,23,45.00,60.00,WinterDesignDay
7,3.0
2,1, 1,21, 0,23, 0.00,60.00,WinterDesignDay
4438,64685.01869840862
2,1, 1,21, 0,24, 0.00,15.00,WinterDesignDay
7,3.0
2,1, 1,21, 0,24,15.00,30.00,WinterDesignDay
7,3.0
2,1, 1,21, 0,24,30.00,45.00,WinterDesignDay
7,3.0
2,1, 1,21, 0,24,45.00,60.00,WinterDesignDay
7,3.0
2,1, 1,21, 0,24, 0.00,60.00,WinterDesignDay
4438,71759.02047559021
1,TORRANCE-MUNICIPAL AUG CLG 0.4% CONDNS DB=>MCWB,  33.80,-118.33,  -8.00,  27.00
2,1, 8,21, 0, 1, 0.00,15.00,SummerDesignDay
7,24.155
2,1, 8,21, 0, 1,15.00,30.00,SummerDesignDay
7,24.05
2,1, 8,21, 0, 1,30.00,45.00,SummerDesignDay
7,23.945
2,1, 8,21, 0, 1,45.00,60.00,SummerDesignDay
7,23.84
2,1, 8,21, 0, 1, 0.00,60.00,SummerDesignDay
4438,0.0
2,1, 8,21, 0, 2, 0.00,15.00,SummerDesignDay
7,23.77
2,1, 8,21, 0, 2,15.00,30.00,SummerDesignDay
7,23.7
2,1, 8,21, 0, 2,30.00,45.00,SummerDesignDay
7,23.63
2,1, 8,21, 0, 2,45.00,60.00,SummerDesignDay
7,23.56
2,1, 8,21, 0, 2, 0.00,60.00,SummerDesignDay
4438,0.0
2,1, 8,21, 0, 3, 0.00,15.00,SummerDesignDay
7,23.5075
2,1, 8,21, 0, 3,15.00,30.00,SummerDesignDay
7,23.455
2,1, 8,21, 0, 3,30.00,45.00,SummerDesignDay
7,23.4025
2,1, 8,21, 0, 3,45.00,60.00,SummerDesignDay
7,23.35
2,1, 8,21, 0, 3, 0.00,60.00,SummerDesignDay
4438,0.0
2,1, 8,21, 0, 4, 0.00,15.00,SummerDesignDay
7,23.2975
2,1, 8,21, 0, 4,15.00,30.00,SummerDesignDay
7,23.245
2,1, 8,21, 0, 4,30.00,45.00,SummerDesignDay
7,23.192500000000004
2,1, 8,21, 0, 4,45.00,60.00,SummerDesignDay
7,23.14
2,1, 8,21, 0, 4, 0.00,60.00,SummerDesignDay
4438,0.0
2,1, 8,21, 0, 5, 0.00,15.00,SummerDesignDay
7,23.105
2,1, 8,21, 0, 5,15.00,30.00,SummerDesignDay
7,23.07
2,1, 8,21, 0, 5,30.00,45.00,SummerDesignDay
7,23.035
2,1, 8,21, 0, 5,45.00,60.00,SummerDesignDay
7,23.0
2,1, 8,21, 0, 5, 0.00,60.00,SummerDesignDay
4438,0.0
2,1, 8,21, 0, 6, 0.00,15.00,SummerDesignDay
7,23.035
2,1, 8,21, 0, 6,15.00,30.00,SummerDesignDay
7,23.07
2,1, 8,21, 0, 6,30.00,45.00,SummerDesignDay
7,23.105
2,1, 8,21, 0, 6,45.00,60.00,SummerDesignDay
7,23.14
2,1, 8,21, 0, 6, 0.00,60.00,SummerDesignDay
4438,0.0
2,1, 8,21, 0, 7, 0.00,15.00,SummerDesignDay
7,23.2625
2,1, 8,21, 0, 7,15.00,30.00,SummerDesignDay
7,23.384999999999999
2,1, 8,21, 0, 7,30.00,45.00,SummerDesignDay
7,23.5075
2,1, 8,21, 0, 7,45.00,60.00,SummerDesignDay
7,23.63
2,1, 8,21, 0, 7, 0.00,60.00,SummerDesignDay
4438,0.0
2,1, 8,21, 0, 8, 0.00,15.00,SummerDesignDay
7,23.927500000000003
2,1, 8,21, 0, 8,15.00,30.00,SummerDesignDay
7,24.225
2,1, 8,21, 0, 8,30.00,45.00,SummerDesignDay
7,24.5225
2,1, 8,21, 0, 8,45.00,60.00,SummerDesignDay
7,24.82
2,1, 8,21, 0, 8, 0.00,60.00,SummerDesignDay
4438,0.0
2,1, 8,21, 0, 9, 0.00,15.00,SummerDesignDay
7,25.1525
2,1, 8,21, 0, 9,15.00,30.00,SummerDesignDay
7,25.485
2,1, 8,21, 0, 9,30.00,45.00,SummerDesignDay
7,25.8175
2,1, 8,21, 0, 9,45.00,60.00,SummerDesignDay
7,26.15
2,1, 8,21, 0, 9, 0.00,60.00,SummerDesignDay
4438,0.0
2,1, 8,21, 0,10, 0.00,15.00,SummerDesignDay
7,26.447499999999999
2,1, 8,21, 0,10,15.00,30.00,SummerDesignDay
7,26.745
2,1, 8,21, 0,10,30.00,45.00,SummerDesignDay
7,27.0425
2,1, 8,21, 0,10,45.00,60.00,SummerDesignDay
7,27.34
2,1, 8,21, 0,10, 0.00,60.00,SummerDesignDay
4438,0.0
2,1, 8,21, 0,11, 0.00,15.00,SummerDesignDay
7,27.6025
2,1, 8,21, 0,11,15.00,30.00,SummerDesignDay
7,27.865000000000003
2,1, 8,21, 0,11,30.00,45.00,SummerDesignDay
7,28.1275
2,1, 8,21, 0,11,45.00,60.00,SummerDesignDay
7,28.39
2,1, 8,21, 0,11, 0.00,60.00,SummerDesignDay
4438,0.0
2,1, 8,21, 0,12, 0.00,15.00,SummerDesignDay
7,28.565
2,1, 8,21, 0,12,15.00,30.00,SummerDesignDay
7,28.74
2,1, 8,21, 0,12,30.00,45.00,SummerDesignDay
7,28.915
2,1, 8,21, 0,12,45.00,60.00,SummerDesignDay
7,29.09
2,1, 8,21, 0,12, 0.00,60.00,SummerDesignDay
4438,0.0
2,1, 8,21, 0,13, 0.00,15.00,SummerDesignDay
7,29.23
2,1, 8,21, 0,13,15.00,30.00,SummerDesignDay
7,29.37
2,1, 8,21, 0,13,30.00,45.00,SummerDesignDay
7,29.51
2,1, 8,21, 0,13,45.00,60.00,SummerDesignDay
7,29.65
2,1, 8,21, 0,13, 0.00,60.00,SummerDesignDay
4438,0.0
2,1, 8,21, 0,14, 0.00,15.00,SummerDesignDay
7,29.7375
2,1, 8,21, 0,14,15.00,30.00,SummerDesignDay
7,29.825
2,1, 8,21, 0,14,30.00,45.00,SummerDesignDay
7,29.9125
2,1, 8,21, 0,14,45.00,60.00,SummerDesignDay
7,30.0
2,1, 8,21, 0,14, 0.00,60.00,SummerDesignDay
4438,0.0
2,1, 8,21, 0,15, 0.00,15.00,SummerDesignDay
7,30.0
2,1, 8,21, 0,15,15.00,30.00,SummerDesignDay
7,30.0
2,1, 8,21, 0,15,30.00,45.00,SummerDesignDay
7,30.0
2,1, 8,21, 0,15,45.00,60.00,SummerDesignDay
7,30.0
2,1, 8,21, 0,15, 0.00,60.00,SummerDesignDay
4438,0.0
2,1, 8,21, 0,16, 0.00,15.00,SummerDesignDay
7,29.895
2,1, 8,21, 0,16,15.00,30.00,SummerDesignDay
7,29.79
2,1, 8,21, 0,16,30.00,45.00,SummerDesignDay
7,29.685
2,1, 8,21, 0,16,45.00,60.00,SummerDesignDay
7,29.58
2,1, 8,21, 0,16, 0.00,60.00,SummerDesignDay
4438,0.0
2,1, 8,21, 0,17, 0.00,15.00,SummerDesignDay
7,29.44
2,1, 8,21, 0,17,15.00,30.00,SummerDesignDay
7,29.3
2,1, 8,21, 0,17,30.00,45.00,SummerDesignDay
7,29.16
2,1, 8,21, 0,17,45.00,60.00,SummerDesignDay
7,29.02
2,1, 8,21, 0,17, 0.00,60.00,SummerDesignDay
4438,0.0
2,1, 8,21, 0,18, 0.00,15.00,SummerDesignDay
7,28.845
2,1, 8,21, 0,18,15.00,30.00,SummerDesignDay
7,28.67
2,1, 8,21, 0,18,30.00,45.00,SummerDesignDay
7,28.495
2,1, 8,21, 0,18,45.00,60.00,SummerDesignDay
7,28.32
2,1, 8,21, 0,18, 0.00,60.00,SummerDesignDay
4438,0.0
2,1, 8,21, 0,19, 0.00,15.00,SummerDesignDay
7,28.0575
2,1, 8,21, 0,19,15.00,30.00,SummerDesignDay
7,27.795
2,1, 8,21, 0,19,30.00,45.00,SummerDesignDay
7,27.5325
2,1, 8,21, 0,19,45.00,60.00,SummerDesignDay
7,27.27
2,1, 8,21, 0,19, 0.00,60.00,SummerDesignDay
4438,0.0
2,1, 8,21, 0,20, 0.00,15.00,SummerDesignDay
7,27.0775
2,1, 8,21, 0,20,15.00,30.00,SummerDesignDay
7,26.884999999999999
2,1, 8,21, 0,20,30.00,45.00,SummerDesignDay
7,26.6925
2,1, 8,21, 0,20,45.00,60.00,SummerDesignDay
7,26.5
2,1, 8,21, 0,20, 0.00,60.00,SummerDesignDay
4438,0.0
2,1, 8,21, 0,21, 0.00,15.00,SummerDesignDay
7,26.3425
2,1, 8,21, 0,21,15.00,30.00,SummerDesignDay
7,26.185000000000004
2,1, 8,21, 0,21,30.00,45.00,SummerDesignDay
7,26.0275
2,1, 8,21, 0,21,45.00,60.00,SummerDesignDay
7,25.87
2,1, 8,21, 0,21, 0.00,60.00,SummerDesignDay
4438,0.0
2,1, 8,21, 0,22, 0.00,15.00,SummerDesignDay
7,25.7125
2,1, 8,21, 0,22,15.00,30.00,SummerDesignDay
7,25.555
2,1, 8,21, 0,22,30.00,45.00,SummerDesignDay
7,25.3975
2,1, 8,21, 0,22,45.00,60.00,SummerDesignDay
7,25.24
2,1, 8,21, 0,22, 0.00,60.00,SummerDesignDay
4438,0.0
2,1, 8,21, 0,23, 0.00,15.00,SummerDesignDay
7,25.1175
2,1, 8,21, 0,23,15.00,30.00,SummerDesignDay
7,24.994999999999999
2,1, 8,21, 0,23,30.00,45.00,SummerDesignDay
7,24.8725
2,1, 8,21, 0,23,45.00,60.00,SummerDesignDay
7,24.75
2,1, 8,21, 0,23, 0.00,60.00,SummerDesignDay
4438,0.0
2,1, 8,21, 0,24, 0.00,15.00,SummerDesignDay
7,24.6275
2,1, 8,21, 0,24,15.00,30.00,SummerDesignDay
7,24.505000000000004
2,1, 8,21, 0,24,30.00,45.00,SummerDesignDay
7,24.3825
2,1, 8,21, 0,24,45.00,60.00,SummerDesignDay
7,24.26
2,1, 8,21, 0,24, 0.00,60.00,SummerDesignDay
4438,0.0
1,TORRANCE-MUNICIPAL JUL CLG 0.4% CONDNS DB=>MCWB,  33.80,-118.33,  -8.00,  27.00
2,1, 7,21, 0, 1, 0.00,15.00,SummerDesignDay
7,24.572499999999999
2,1, 7,21, 0, 1,15.00,30.00,SummerDesignDay
7,24.475
2,1, 7,21, 0, 1,30.00,45.00,SummerDesignDay
7,24.3775
2,1, 7,21, 0, 1,45.00,60.00,SummerDesignDay
7,24.28
2,1, 7,21, 0, 1, 0.00,60.00,SummerDesignDay
4438,0.0
2,1, 7,21, 0, 2, 0.00,15.00,SummerDesignDay
7,24.215
2,1, 7,21, 0, 2,15.00,30.00,SummerDesignDay
7,24.15
2,1, 7,21, 0, 2,30.00,45.00,SummerDesignDay
7,24.085
2,1, 7,21, 0, 2,45.00,60.00,SummerDesignDay
7,24.02
2,1, 7,21, 0, 2, 0.00,60.00,SummerDesignDay
4438,0.0
2,1, 7,21, 0, 3, 0.00,15.00,SummerDesignDay
7,23.97125
2,1, 7,21, 0, 3,15.00,30.00,SummerDesignDay
7,23.9225
2,1, 7,21, 0, 3,30.00,45.00,SummerDesignDay
7,23.87375
2,1, 7,21, 0, 3,45.00,60.00,SummerDesignDay
7,23.825
2,1, 7,21, 0, 3, 0.00,60.00,SummerDesignDay
4438,0.0
2,1, 7,21, 0, 4, 0.00,15.00,SummerDesignDay
7,23.77625
2,1, 7,21, 0, 4,15.00,30.00,SummerDesignDay
7,23.7275
2,1, 7,21, 0, 4,30.00,45.00,SummerDesignDay
7,23.67875
2,1, 7,21, 0, 4,45.00,60.00,SummerDesignDay
7,23.63
2,1, 7,21, 0, 4, 0.00,60.00,SummerDesignDay
4438,0.0
2,1, 7,21, 0, 5, 0.00,15.00,SummerDesignDay
7,23.5975
2,1, 7,21, 0, 5,15.00,30.00,SummerDesignDay
7,23.565
2,1, 7,21, 0, 5,30.00,45.00,SummerDesignDay
7,23.5325
2,1, 7,21, 0, 5,45.00,60.00,SummerDesignDay
7,23.5
2,1, 7,21, 0, 5, 0.00,60.00,SummerDesignDay
4438,0.0
2,1, 7,21, 0, 6, 0.00,15.00,SummerDesignDay
7,23.5325
2,1, 7,21, 0, 6,15.00,30.00,SummerDesignDay
7,23.565
2,1, 7,21, 0, 6,30.00,45.00,SummerDesignDay
7,23.5975
2,1, 7,21, 0, 6,45.00,60.00,SummerDesignDay
7,23.63
2,1, 7,21, 0, 6, 0.00,60.00,SummerDesignDay
4438,0.0
2,1, 7,21, 0, 7, 0.00,15.00,SummerDesignDay
7,23.74375
2,1, 7,21, 0, 7,15.00,30.00,SummerDesignDay
7,23.8575
2,1, 7,21, 0, 7,30.00,45.00,SummerDesignDay
7,23.97125
2,1, 7,21, 0, 7,45.00,60.00,SummerDesignDay
7,24.085
2,1, 7,21, 0, 7, 0.00,60.00,SummerDesignDay
4438,0.0
2,1, 7,21, 0, 8, 0.00,15.00,SummerDesignDay
7,24.36125
2,1, 7,21, 0, 8,15.00,30.00,SummerDesignDay
7,24.6375
2,1, 7,21, 0, 8,30.00,45.00,SummerDesignDay
7,24.91375
2,1, 7,21, 0, 8,45.00,60.00,SummerDesignDay
7,25.19
2,1, 7,21, 0, 8, 0.00,60.00,SummerDesignDay
4438,0.0
2,1, 7,21, 0, 9, 0.00,15.00,SummerDesignDay
7,25.49875
2,1, 7,21, 0, 9,15.00,30.00,SummerDesignDay
7,25.8075
2,1, 7,21, 0, 9,30.00,45.00,SummerDesignDay
7,26.11625