Program Version,EnergyPlus, Version 9.0.1-bb7ca4f0da, YMD=2019.11.06 14:31
1,5,Environment Title[],Latitude[deg],Longitude[deg],Time Zone[],Elevation[m]
2,8,Day of Simulation[],Month[],Day of Month[],DST Indicator[1=yes 0=no],Hour[],StartMinute[],EndMinute[],DayType
3,5,Cumulative Day of Simulation[],Month[],Day of Month[],DST Indicator[1=yes 0=no],DayType  ! When Daily Meters Requested
4,2,Cumulative Days of Simulation[],Month[]  ! When Monthly Meters Requested
5,1,Cumulative Days of Simulation[] ! When Run Period Meters Requested
6,1,Calendar Year of Simulation[] ! When Annual Meters Requested
1069,1,Pumps:Electricity [J] !Hourly
11,1,Electricity:Facility [J] !Hourly
47,1,InteriorLights:Electricity [J] !Hourly
968,1,Cooling:Electricity [J] !Hourly
914,1,Fans:Electricity [J] !Hourly
184,1,InteriorEquipment:Electricity [J] !Hourly
1039,1,Heating:Electricity [J] !Hourly
1026,1,Heating:Gas [J] !Hourly
334,1,WaterSystems:Electricity [J] !Hourly
1002,1,Gas:Facility [J] !Hourly
208,1,Receptacle:InteriorEquipment:Electricity [J] !Hourly
71,1,ComplianceLtg:InteriorLights:Electricity [J] !Hourly
End of Data Dictionary
1,SACRAMENTO-EXECUTIVE_724830_CZ2010,  38.50,-121.50,  -8.00,   5.00
2,1, 1, 1, 0, 1, 0.00,60.00,Holiday
11,10454954.517456558
47,594224.1902879989
71,594224.1902879989
184,1485560.4757199924
208,1485560.4757199924
334,0.0
914,8265972.788214963
968,109197.06323360464
1002,1120485.9402125364
1026,1120485.9402125364
1039,0.0
1069,0.0
2,1, 1, 1, 0, 2, 0.00,60.00,Holiday
11,10614013.445888997
47,594224.1902879989
71,594224.1902879989
184,1485560.4757199924
208,1485560.4757199924
334,0.0
914,8404160.522827533
968,130068.25705347397
1002,802314.9260100671
1026,802314.9260100671
1039,0.0
1069,0.0
2,1, 1, 1, 0, 3, 0.00,60.00,Holiday
11,9752452.670845364
47,594224.1902879989
71,594224.1902879989
184,1485560.4757199924
208,1485560.4757199924
334,0.0
914,7596702.728050796
968,75965.27678657611
1002,939656.867822514
1026,939656.867822514
1039,0.0
1069,0.0
2,1, 1, 1, 0, 4, 0.00,60.00,Holiday
11,9513235.279905435
47,594224.1902879989
71,594224.1902879989
184,1485560.4757199924
208,1485560.4757199924
334,0.0
914,7324635.511537228
968,108815.10236021539
1002,825413.6845346068
1026,825413.6845346068
1039,0.0
1069,0.0
2,1, 1, 1, 0, 5, 0.00,60.00,Holiday
11,12098476.644140289
47,594224.1902879989
71,594224.1902879989
184,1485560.4757199924
208,1485560.4757199924
334,952867.9965351659
914,8997137.687121787
968,68686.29447534608
1002,1155263.58297703
1026,1155263.58297703
1039,0.0
1069,0.0
2,1, 1, 1, 0, 6, 0.00,60.00,Holiday
11,15332434.484791547
47,594224.1902879989
71,594224.1902879989
184,1485560.4757199924
208,1485560.4757199924
334,0.0
914,13209323.456959358
968,43326.36182419924
1002,5963844.338806266
1026,5963844.338806266
1039,0.0
1069,0.0
2,1, 1, 1, 0, 7, 0.00,60.00,Holiday
11,15289108.12296735
47,594224.1902879989
71,594224.1902879989
184,1485560.4757199924
208,1485560.4757199924
334,0.0
914,13209323.456959358
968,0.0
1002,5718085.021339197
1026,5718085.021339197
1039,0.0
1069,0.0
2,1, 1, 1, 0, 8, 0.00,60.00,Holiday
11,16241956.493298542
47,594224.1902879989
71,594224.1902879989
184,1485560.4757199924
208,1485560.4757199924
334,952848.3703311947
914,13209323.456959358
968,0.0
1002,6536976.4600030579
1026,6536976.4600030579
1039,0.0
1069,0.0
2,1, 1, 1, 0, 9, 0.00,60.00,Holiday
11,15289108.12296735
47,594224.1902879989
71,594224.1902879989
184,1485560.4757199924
208,1485560.4757199924
334,0.0
914,13209323.456959358
968,0.0
1002,6548023.350267066
1026,6548023.350267066
1039,0.0
1069,0.0
2,1, 1, 1, 0,10, 0.00,60.00,Holiday
11,15289108.12296735
47,594224.1902879989
71,594224.1902879989
184,1485560.4757199924
208,1485560.4757199924
334,0.0
914,13209323.456959358
968,0.0
1002,6795017.088479763
1026,6795017.088479763
1039,0.0
1069,0.0
2,1, 1, 1, 0,11, 0.00,60.00,Holiday
11,15289108.12296735
47,594224.1902879989
71,594224.1902879989
184,1485560.4757199924
208,1485560.4757199924
334,0.0
914,13209323.456959358
968,0.0
1002,6525128.122037525
1026,6525128.122037525
1039,0.0
1069,0.0
2,1, 1, 1, 0,12, 0.00,60.00,Holiday
11,16244151.859930993
47,594224.1902879989
71,594224.1902879989
184,1485560.4757199924
208,1485560.4757199924
334,955043.7369636436
914,13209323.456959358
968,0.0
1002,6166795.289978271
1026,6166795.289978271
1039,0.0
1069,0.0
2,1, 1, 1, 0,13, 0.00,60.00,Holiday
11,15289108.12296735
47,594224.1902879989
71,594224.1902879989
184,1485560.4757199924
208,1485560.4757199924
334,0.0
914,13209323.456959358
968,0.0
1002,5733187.202497323
1026,5733187.202497323
1039,0.0
1069,0.0
2,1, 1, 1, 0,14, 0.00,60.00,Holiday
11,15289108.12296735
47,594224.1902879989
71,594224.1902879989
184,1485560.4757199924
208,1485560.4757199924
334,0.0
914,13209323.456959358
968,0.0
1002,3298108.0297697305
1026,3298108.0297697305
1039,0.0
1069,0.0
2,1, 1, 1, 0,15, 0.00,60.00,Holiday
11,16244148.494915054
47,594224.1902879989
71,594224.1902879989
184,1485560.4757199924
208,1485560.4757199924
334,955040.3719477061
914,13209323.456959358
968,0.0
1002,2188693.585756406
1026,2188693.585756406
1039,0.0
1069,0.0
2,1, 1, 1, 0,16, 0.00,60.00,Holiday
11,15289108.12296735
47,594224.1902879989
71,594224.1902879989
184,1485560.4757199924
208,1485560.4757199924
334,0.0
914,13209323.456959358
968,0.0
1002,2055734.0659898003
1026,2055734.0659898003
1039,0.0
1069,0.0
2,1, 1, 1, 0,17, 0.00,60.00,Holiday
11,15289108.12296735
47,594224.1902879989
71,594224.1902879989
184,1485560.4757199924
208,1485560.4757199924
334,0.0
914,13209323.456959358
968,0.0
1002,1950845.6173437867
1026,1950845.6173437867
1039,0.0
1069,0.0
2,1, 1, 1, 0,18, 0.00,60.00,Holiday
11,15289108.12296735
47,594224.1902879989
71,594224.1902879989
184,1485560.4757199924
208,1485560.4757199924
334,0.0
914,13209323.456959358
968,0.0
1002,1769682.717819811
1026,1769682.717819811
1039,0.0
1069,0.0
2,1, 1, 1, 0,19, 0.00,60.00,Holiday
11,10520621.183674224
47,594224.1902879989
71,594224.1902879989
184,1485560.4757199924
208,1485560.4757199924
334,952868.1089897498
914,7359024.362477407
968,128944.0461990755
1002,1078417.6634543413
1026,1078417.6634543413
1039,0.0
1069,0.0
2,1, 1, 1, 0,20, 0.00,60.00,Holiday
11,9602390.060514739
47,594224.1902879989
71,594224.1902879989
184,1485560.4757199924
208,1485560.4757199924
334,0.0
914,7413980.514882684
968,108624.87962406344
1002,1491151.7092065674
1026,1491151.7092065674
1039,0.0
1069,0.0
2,1, 1, 1, 0,21, 0.00,60.00,Holiday
11,8858929.94280283
47,594224.1902879989
71,594224.1902879989
184,1485560.4757199924
208,1485560.4757199924
334,0.0
914,6689754.302313239
968,89390.97448159952
1002,1695518.042310631
1026,1695518.042310631
1039,0.0
1069,0.0
2,1, 1, 1, 0,22, 0.00,60.00,Holiday
11,10054755.295392918
47,594224.1902879989
71,594224.1902879989
184,1485560.4757199924
208,1485560.4757199924
334,956121.6240460223
914,6927432.667886631
968,91416.33745227407
1002,2116284.245543118
1026,2116284.245543118
1039,0.0
1069,0.0
2,1, 1, 1, 0,23, 0.00,60.00,Holiday
11,9103732.444575845
47,594224.1902879989
71,594224.1902879989
184,1485560.4757199924
208,1485560.4757199924
334,0.0
914,6927432.667886631
968,96515.1106812218
1002,2459994.7541075239
1026,2459994.7541075239
1039,0.0
1069,0.0
2,1, 1, 1, 0,24, 0.00,60.00,Holiday
11,11013906.458070208
47,594224.1902879989
71,594224.1902879989
184,1485560.4757199924
208,1485560.4757199924
334,0.0
914,8814415.473953672
968,119706.31810854457
1002,1369513.1790725464
1026,1369513.1790725464
1039,0.0
1069,0.0
2,2, 1, 2, 0, 1, 0.00,60.00,Friday
11,10452406.83830892
47,594224.1902879989
71,594224.1902879989
184,1485560.4757199924
208,1485560.4757199924
334,0.0
914,8265972.788214963
968,106649.38408596505
1002,1397667.4244743405
1026,1397667.4244743405
1039,0.0
1069,0.0
2,2, 1, 2, 0, 2, 0.00,60.00,Friday
11,11866109.94406931
47,594224.1902879989
71,594224.1902879989
184,1485560.4757199924
208,1485560.4757199924
334,953941.781019866
914,8676227.739341103
968,156155.75770034753
1002,1595166.4477902479
1026,1595166.4477902479
1039,0.0
1069,0.0
2,2, 1, 2, 0, 3, 0.00,60.00,Friday
11,11328219.111199372
47,594224.1902879989
71,594224.1902879989
184,1485560.4757199924
208,1485560.4757199924
334,0.0
914,9086482.69046724
968,161951.75472414157
1002,2021115.0336024038
1026,2021115.0336024038
1039,0.0
1069,0.0
2,2, 1, 2, 0, 4, 0.00,60.00,Friday
11,10919779.605891614
47,594224.1902879989
71,594224.1902879989
184,1485560.4757199924
208,1485560.4757199924
334,0.0
914,8676227.739341103
968,163767.20054251856
1002,1960510.9039101443
1026,1960510.9039101443
1039,0.0
1069,0.0
2,2, 1, 2, 0, 5, 0.00,60.00,Friday
11,11334630.048692244
47,594224.1902879989
71,594224.1902879989
184,1485560.4757199924
208,1485560.4757199924
334,0.0
914,9086482.69046724
968,168362.69221701
1002,2191672.389934824
1026,2191672.389934824
1039,0.0
1069,0.0
2,2, 1, 2, 0, 6, 0.00,60.00,Friday
11,18325944.016081308
47,1188448.3805759978
71,1188448.3805759978
184,2971120.9514399848
208,2971120.9514399848
334,957051.2271059649
914,13209323.45695936
968,0.0
1002,121364773.13206437
1026,121364773.13206437
1039,0.0
1069,0.0
2,2, 1, 2, 0, 7, 0.00,60.00,Friday
11,17368892.788975344
47,1188448.3805759978
71,1188448.3805759978
184,2971120.9514399848
208,2971120.9514399848
334,0.0
914,13209323.456959358
968,0.0
1002,105767821.15361646
1026,105767821.15361646
1039,0.0
1069,0.0
2,2, 1, 2, 0, 8, 0.00,60.00,Friday
11,26657427.94236815
47,3565345.141727993
71,3565345.141727993
184,8913362.854319955
208,8913362.854319955
334,969396.4893608486
914,13209323.456959358
968,0.0
1002,84853908.69368074
1026,84853908.69368074
1039,0.0
1069,0.0
2,2, 1, 2, 0, 9, 0.00,60.00,Friday
11,48662017.35614855
47,7724914.473743984
71,7724914.473743984
184,26740088.562959859
208,26740088.562959859
334,987690.8624853538
914,13209323.456959358
968,0.0
1002,44609883.578611169
1026,44609883.578611169
1039,0.0
1069,0.0
2,2, 1, 2, 0,10, 0.00,60.00,Friday
11,49656819.053836408
47,7724914.473743984
71,7724914.473743984
184,26740088.562959859
208,26740088.562959859
334,1982492.560173204
914,13209323.456959358
968,0.0
1002,37438123.16759148
1026,37438123.16759148
1039,0.0
1069,0.0
2,2, 1, 2, 0,11, 0.00,60.00,Friday
11,48666604.692886527
47,7724914.473743984
71,7724914.473743984
184,26740088.562959859
208,26740088.562959859
334,992278.1992233287
914,13209323.456959358
968,0.0
1002,31951784.674923906
1026,31951784.674923906
1039,0.0
1069,0.0
2,2, 1, 2, 0,12, 0.00,60.00,Friday
11,49678047.993326488
47,7724914.473743984
71,7724914.473743984
184,26740088.562959859
208,26740088.562959859
334,2003721.4996632874
914,13209323.456959358
968,0.0
1002,27297831.12601987
1026,27297831.12601987
1039,0.0
1069,0.0
2,2, 1, 2, 0,13, 0.00,60.00,Friday
11,49702134.16491069
47,7724914.473743984
71,7724914.473743984
184,26740088.562959859
208,26740088.562959859
334,2027807.671247486
914,13209323.456959358
968,0.0
1002,26697956.356229187
1026,26697956.356229187
1039,0.0
1069,0.0
2,2, 1, 2, 0,14, 0.00,60.00,Friday
11,49694929.886791307
47,7724914.473743984
71,7724914.473743984
184,26740088.562959859
208,26740088.562959859
334,2020603.3931281027
914,13209323.456959358
968,0.0
1002,15287516.98629022
1026,15287516.98629022
1039,0.0
1069,0.0
2,2, 1, 2, 0,15, 0.00,60.00,Friday
11,49647224.835882838
47,7724914.473743984
71,7724914.473743984
184,26740088.562959859
208,26740088.562959859
334,1972898.3422196336
914,13209323.456959358
968,0.0
1002,8729311.38380743
1026,8729311.38380743
1039,0.0
1069,0.0
2,2, 1, 2, 0,16, 0.00,60.00,Friday
11,48659596.32721692
47,7724914.473743984
71,7724914.473743984
184,26740088.562959859
208,26740088.562959859
334,985269.8335537276
914,13209323.456959358
968,0.0
1002,4529299.329334583
1026,4529299.329334583
1039,0.0
1069,0.0
2,2, 1, 2, 0,17, 0.00,60.00,Friday
11,49670755.14572729
47,7724914.473743984
71,7724914.473743984
184,26740088.562959859
208,26740088.562959859
334,1996428.6520640949
914,13209323.456959358
968,0.0
1002,5152625.0384333119
1026,5152625.0384333119
1039,0.0
1069,0.0
2,2, 1, 2, 0,18, 0.00,60.00,Friday
11,33201784.10833635
47,4159569.3320159919
71,4159569.3320159919
184,14855604.757199923
208,14855604.757199923
334,977286.5621610792
914,13209323.456959358
968,0.0
1002,30558820.569197615
1026,30558820.569197615
1039,0.0
1069,0.0
2,2, 1, 2, 0,19, 0.00,60.00,Friday
11,25688031.453007305
47,3565345.141727993
71,3565345.141727993
184,8913362.854319955
208,8913362.854319955
334,0.0
914,13209323.456959358
968,0.0
1002,43660959.88041298
1026,43660959.88041298
1039,0.0
1069,0.0
2,2, 1, 2, 0,20, 0.00,60.00,Friday
11,26653005.493986004
47,3565345.141727993
71,3565345.141727993
184,8913362.854319955
208,8913362.854319955
334,964974.0409786957
914,13209323.456959358
968,0.0
1002,47177136.12375981
1026,47177136.12375981
1039,0.0
1069,0.0
2,2, 1, 2, 0,21, 0.00,60.00,Friday
11,22495415.33131393
47,2376896.7611519957
71,2376896.7611519957
184,5942241.902879969
208,5942241.902879969
334,966953.2103226121
914,13209323.456959358
968,0.0
1002,57055749.547470558
1026,57055749.547470558
1039,0.0
1069,0.0
2,2, 1, 2, 0,22, 0.00,60.00,Friday
11,21528462.12099132
47,2376896.7611519957
71,2376896.7611519957
184,5942241.902879969
208,5942241.902879969
334,0.0
914,13209323.456959358
968,0.0
1002,59636516.90962378
1026,59636516.90962378
1039,0.0
1069,0.0
2,2, 1, 2, 0,23, 0.00,60.00,Friday
11,18322834.938965925
47,1188448.3805759978
71,1188448.3805759978
184,2971120.9514399848
208,2971120.9514399848
334,953942.1499905818
914,13209323.456959358
968,0.0
1002,67392558.26395223
1026,67392558.26395223
1039,0.0
1069,0.0
2,2, 1, 2, 0,24, 0.00,60.00,Friday
11,15289108.12296735
47,594224.1902879989
71,594224.1902879989
184,1485560.4757199924
208,1485560.4757199924
334,0.0
914,13209323.456959358
968,0.0
1002,73816106.76772514
1026,73816106.76772514
1039,0.0
1069,0.0
2,3, 1, 3, 0, 1, 0.00,60.00,Saturday
11,2079784.6660079912
47,594224.1902879989
71,594224.1902879989
184,1485560.4757199924
208,1485560.4757199924
334,0.0
914,0.0
968,0.0
1002,0.0
1026,0.0
1039,0.0
1069,0.0
2,3, 1, 3, 0, 2, 0.00,60.00,Saturday
11,2079784.6660079912
47,594224.1902879989
71,594224.1902879989
184,1485560.4757199924
208,1485560.4757199924
334,0.0
914,0.0
968,0.0
1002,0.0
1026,0.0
1039,0.0
1069,0.0
2,3, 1, 3, 0, 3, 0.00,60.00,Saturday
11,3033720.9027559126
47,594224.1902879989
71,594224.1902879989
184,1485560.4757199924
208,1485560.4757199924
334,953936.236747921
914,0.0
968,0.0
1002,0.0
1026,0.0
1039,0.0
1069,0.0
2,3, 1, 3, 0, 4, 0.00,60.00,Saturday
11,2079784.6660079912
47,594224.1902879989
71,594224.1902879989
184,1485560.4757199924
208,1485560.4757199924
334,0.0
914,0.0
968,0.0
1002,0.0
1026,0.0
1039,0.0
1069,0.0
2,3, 1, 3, 0, 5, 0.00,60.00,Saturday
11,2079784.6660079912
47,594224.1902879989
71,594224.1902879989
184,1485560.4757199924
208,1485560.4757199924
334,0.0
914,0.0
968,0.0
1002,0.0
1026,0.0
1039,0.0
1069,0.0
2,3, 1, 3, 0, 6, 0.00,60.00,Saturday
11,16246344.512344089
47,594224.1902879989
71,594224.1902879989
184,1485560.4757199924
208,1485560.4757199924
334,957236.3893767409
914,13209323.456959358
968,0.0
1002,119143672.21992919
1026,119143672.21992919
1039,0.0
1069,0.0
2,3, 1, 3, 0, 7, 0.00,60.00,Saturday
11,17368892.788975344
47,1188448.3805759978
71,1188448.3805759978
184,2971120.9514399848
208,2971120.9514399848
334,0.0
914,13209323.456959358
968,0.0
1002,99052485.0005327
1026,99052485.0005327
1039,0.0
1069,0.0
2,3, 1, 3, 0, 8, 0.00,60.00,Saturday
11,17898750.359623959
47,1188448.3805759978
71,1188448.3805759978
184,2971120.9514399848
208,2971120.9514399848
334,529857.5706486153
914,13209323.456959358
968,0.0
1002,93631705.72784129
1026,93631705.72784129
1039,0.0
1069,0.0
2,3, 1, 3, 0, 9, 0.00,60.00,Saturday
11,26120483.29785218
47,3565345.141727993
71,3565345.141727993
184,8913362.854319955
208,8913362.854319955
334,432451.8448448747
914,13209323.456959358
968,0.0
1002,73086801.10276622
1026,73086801.10276622
1039,0.0
1069,0.0
2,3, 1, 3, 0,10, 0.00,60.00,Saturday
11,26659652.07408586
47,3565345.141727993
71,3565345.141727993
184,8913362.854319955
208,8913362.854319955
334,971620.6210785585
914,13209323.456959358
968,0.0
1002,57664806.35120658
1026,57664806.35120658
1039,0.0
1069,0.0
2,3, 1, 3, 0,11, 0.00,60.00,Saturday
11,26657438.943641478
47,3565345.141727993
71,3565345.141727993
184,8913362.854319955
208,8913362.854319955
334,969407.4906341696
914,13209323.456959358
968,0.0
1002,41805843.42783809
1026,41805843.42783809
1039,0.0
1069,0.0
2,3, 1, 3, 0,12, 0.00,60.00,Saturday
11,26661952.44513703
47,3565345.141727993
71,3565345.141727993
184,8913362.854319955
208,8913362.854319955
334,973920.9921297248
914,13209323.456959358
968,0.0
1002,28916708.57794878
1026,28916708.57794878
1039,0.0
1069,0.0
2,3, 1, 3, 0,13, 0.00,60.00,Saturday
11,20419186.695161277
47,1782672.5708639965
71,1782672.5708639965
184,4456681.427159977
208,4456681.427159977
334,970509.2401779437
914,13209323.456959358
968,0.0
1002,29987948.70851345
1026,29987948.70851345
1039,0.0
1069,0.0
2,3, 1, 3, 0,14, 0.00,60.00,Saturday
11,19448677.45498333
47,1782672.5708639965
71,1782672.5708639965
184,4456681.427159977
208,4456681.427159977
334,0.0
914,13209323.456959358
968,0.0
1002,25022700.445074295
1026,25022700.445074295
1039,0.0
1069,0.0
2,3, 1, 3, 0,15, 0.00,60.00,Saturday
11,20413587.79627966
47,1782672.5708639965
71,1782672.5708639965
184,4456681.427159977
208,4456681.427159977
334,964910.3412963299
914,13209323.456959358
968,0.0
1002,22584661.000084618
1026,22584661.000084618
1039,0.0
1069,0.0
2,3, 1, 3, 0,16, 0.00,60.00,Saturday
11,20410303.093401508
47,1782672.5708639965
71,1782672.5708639965
184,4456681.427159977
208,4456681.427159977
334,961625.6384181789
914,13209323.456959358
968,0.0
1002,22855965.957054397
1026,22855965.957054397
1039,0.0
1069,0.0
2,3, 1, 3, 0,17, 0.00,60.00,Saturday
11,19448677.45498333
47,1782672.5708639965
71,1782672.5708639965
184,4456681.427159977
208,4456681.427159977
334,0.0
914,13209323.456959358
968,0.0
1002,26696151.615337854
1026,26696151.615337854
1039,0.0
1069,0.0
2,3, 1, 3, 0,18, 0.00,60.00,Saturday
11,16245248.097075465
47,594224.1902879989
71,594224.1902879989
184,1485560.4757199924
208,1485560.4757199924
334,956139.9741081148
914,13209323.456959358
968,0.0
1002,38613632.51366349
1026,38613632.51366349
1039,0.0
1069,0.0
2,3, 1, 3, 0,19, 0.00,60.00,Saturday
11,15289108.12296735
47,594224.1902879989
71,594224.1902879989
184,1485560.4757199924
208,1485560.4757199924
334,0.0
914,13209323.456959358
968,0.0
1002,44741041.83334951
1026,44741041.83334951
1039,0.0
1069,0.0
2,3, 1, 3, 0,20, 0.00,60.00,Saturday
11,2079784.6660079912
47,594224.1902879989
71,594224.1902879989
184,1485560.4757199924
208,1485560.4757199924
334,0.0
914,0.0
968,0.0
1002,0.0
1026,0.0
1039,0.0
1069,0.0
2,3, 1, 3, 0,21, 0.00,60.00,Saturday
11,3035913.005823875
47,594224.1902879989
71,594224.1902879989
184,1485560.4757199924
208,1485560.4757199924
334,956128.3398158834
914,0.0
968,0.0
1002,0.0
1026,0.0
1039,0.0
1069,0.0
2,3, 1, 3, 0,22, 0.00,60.00,Saturday
11,2079784.6660079912
47,594224.1902879989
71,594224.1902879989
184,1485560.4757199924
208,1485560.4757199924
334,0.0
914,0.0
968,0.0
1002,0.0
1026,0.0
1039,0.0
1069,0.0
2,3, 1, 3, 0,23, 0.00,60.00,Saturday
11,2079784.6660079912
47,594224.1902879989
71,594224.1902879989
184,1485560.4757199924
208,1485560.4757199924
334,0.0
914,0.0
968,0.0
1002,0.0
1026,0.0
1039,0.0
1069,0.0
2,3, 1, 3, 0,24, 0.00,60.00,Saturday
11,3033703.4551673179
47,594224.1902879989
71,594224.1902879989
184,1485560.4757199924
208,1485560.4757199924
334,953918.7891593262
914,0.0
968,0.0
1002,0.0
1026,0.0
1039,0.0
1069,0.0
2,4, 1, 4, 0, 1, 0.00,60.00,Sunday
11,2079784.6660079912
47,594224.1902879989
71,594224.1902879989
184,1485560.4757199924
208,1485560.4757199924
334,0.0
914,0.0
968,0.0
1002,0.0
1026,0.0
1039,0.0
1069,0.0
2,4, 1, 4, 0, 2, 0.00,60.00,Sunday
11,2079784.6660079912
47,594224.1902879989
71,594224.1902879989
184,1485560.4757199924
208,1485560.4757199924
334,0.0
914,0.0
968,0.0
1002,0.0
1026,0.0
1039,0.0
1069,0.0
2,4, 1, 4, 0, 3, 0.00,60.00,Sunday
11,2079784.6660079912
47,594224.1902879989
71,594224.1902879989
184,1485560.4757199924
208,1485560.4757199924
334,0.0
914,0.0
968,0.0
1002,0.0
1026,0.0
1039,0.0
1069,0.0
2,4, 1, 4, 0, 4, 0.00,60.00,Sunday
11,3032624.4484052315
47,594224.1902879989
71,594224.1902879989
184,1485560.4757199924
208,1485560.4757199924
334,952839.7823972402
914,0.0
968,0.0
1002,0.0
1026,0.0
1039,0.0
1069,0.0
2,4, 1, 4, 0, 5, 0.00,60.00,Sunday
11,2079784.6660079912
47,594224.1902879989
71,594224.1902879989
184,1485560.4757199924
208,1485560.4757199924
334,0.0
914,0.0
968,0.0
1002,0.0
1026,0.0
1039,0.0
1069,0.0
2,4, 1, 4, 0, 6, 0.00,60.00,Sunday
11,15316839.645549886
47,594224.1902879989
71,594224.1902879989
184,1485560.4757199924
208,1485560.4757199924
334,0.0
914,13209323.456959358
968,27731.52258253721
1002,13568292.520501666
1026,13568292.520501666
1039,0.0
1069,0.0
2,4, 1, 4, 0, 7, 0.00,60.00,Sunday
11,15289108.12296735
47,594224.1902879989
71,594224.1902879989
184,1485560.4757199924
208,1485560.4757199924
334,0.0
914,13209323.456959358
968,0.0
1002,18923632.16410773
1026,18923632.16410773
1039,0.0
1069,0.0
2,4, 1, 4, 0, 8, 0.00,60.00,Sunday
11,16241975.802950239
47,594224.1902879989
71,594224.1902879989
184,1485560.4757199924
208,1485560.4757199924
334,952867.6799828906
914,13209323.456959358
968,0.0
1002,22398464.90215919
1026,22398464.90215919
1039,0.0
1069,0.0
2,4, 1, 4, 0, 9, 0.00,60.00,Sunday
11,15289108.12296735
47,594224.1902879989
71,594224.1902879989
184,1485560.4757199924
208,1485560.4757199924
334,0.0
914,13209323.456959358
968,0.0
1002,20077926.257149176
1026,20077926.257149176
1039,0.0
1069,0.0
2,4, 1, 4, 0,10, 0.00,60.00,Sunday
11,15289108.12296735
47,594224.1902879989
71,594224.1902879989
184,1485560.4757199924
208,1485560.4757199924
334,0.0
914,13209323.456959358
968,0.0
1002,11529772.983933282
1026,11529772.983933282
1039,0.0
1069,0.0
2,4, 1, 4, 0,11, 0.00,60.00,Sunday
11,15331306.982197138
47,594224.1902879989
71,594224.1902879989
184,1485560.4757199924
208,1485560.4757199924
334,0.0
914,13209323.456959358
968,42198.85922978787
1002,4293542.1800877689
1026,4293542.1800877689
1039,0.0
1069,0.0
2,4, 1, 4, 0,12, 0.00,60.00,Sunday
11,16296616.88243029
47,594224.1902879989
71,594224.1902879989
184,1485560.4757199924
208,1485560.4757199924
334,955033.8209002154
914,13209323.456959358
968,52474.93856272513
1002,1119309.748823913
1026,1119309.748823913
1039,0.0
1069,0.0
2,4, 1, 4, 0,13, 0.00,60.00,Sunday
11,15331315.06895774
47,594224.1902879989
71,594224.1902879989
184,1485560.4757199924
208,1485560.4757199924
334,0.0
914,13209323.456959358
968,42206.94599039157
1002,0.0
1026,0.0
1039,0.0
1069,0.0
2,4, 1, 4, 0,14, 0.00,60.00,Sunday
11,16358965.51384908
47,594224.1902879989
71,594224.1902879989
184,1485560.4757199924
208,1485560.4757199924
334,958294.651517669
914,13209323.456959358
968,111562.73936406193
1002,0.0
1026,0.0
1039,0.0
1069,0.0
2,4, 1, 4, 0,15, 0.00,60.00,Sunday
11,15359342.467032768
47,594224.1902879989
71,594224.1902879989
184,1485560.4757199924
208,1485560.4757199924
334,0.0
914,13209323.456959358
968,70234.34406541876
1002,0.0
1026,0.0
1039,0.0
1069,0.0
2,4, 1, 4, 0,16, 0.00,60.00,Sunday
11,15311372.277296175
47,594224.1902879989
71,594224.1902879989
184,1485560.4757199924
208,1485560.4757199924
334,0.0
914,13209323.456959358
968,22264.154328825178
1002,0.0
1026,0.0
1039,0.0
1069,0.0
2,4, 1, 4, 0,17, 0.00,60.00,Sunday
11,15289108.12296735
47,594224.1902879989
71,594224.1902879989
184,1485560.4757199924
208,1485560.4757199924
334,0.0
914,13209323.456959358
968,0.0
1002,320601.12237556
1026,320601.12237556
1039,0.0
1069,0.0
2,4, 1, 4, 0,18, 0.00,60.00,Sunday
11,16241969.132006437
47,594224.1902879989
71,594224.1902879989
184,1485560.4757199924
208,1485560.4757199924
334,952861.009039086
914,13209323.456959358
968,0.0
1002,795672.2949381243
1026,795672.2949381243
1039,0.0
1069,0.0
2,4, 1, 4, 0,19, 0.00,60.00,Sunday
11,2079784.6660079912
47,594224.1902879989
71,594224.1902879989
184,1485560.4757199924
208,1485560.4757199924
334,0.0
914,0.0
968,0.0
1002,0.0
1026,0.0
1039,0.0
1069,0.0
2,4, 1, 4, 0,20, 0.00,60.00,Sunday
11,2079784.6660079912
47,594224.1902879989
71,594224.1902879989
184,1485560.4757199924
208,1485560.4757199924
334,0.0
914,0.0
968,0.0
1002,0.0
1026,0.0
1039,0.0
1069,0.0
2,4, 1, 4, 0,21, 0.00,60.00,Sunday
11,2079784.6660079912
47,594224.1902879989
71,594224.1902879989
184,1485560.4757199924
208,1485560.4757199924
334,0.0
914,0.0
968,0.0
1002,0.0
1026,0.0
1039,0.0
1069,0.0
2,4, 1, 4, 0,22, 0.00,60.00,Sunday
11,3720609.1846181589
47,594224.1902879989
71,594224.1902879989
184,1485560.4757199924
208,1485560.4757199924
334,956129.1580687029
914,667924.1105124487
968,16771.250029015362
1002,0.0
1026,0.0
1039,0.0
1069,0.0
2,4, 1, 4, 0,23, 0.00,60.00,Sunday
11,3805227.801404663
47,594224.1902879989
71,594224.1902879989
184,1485560.4757199924
208,1485560.4757199924
334,0.0
914,1687415.274686368
968,38027.860710303365
1002,0.0
1026,0.0
1039,0.0
1069,0.0
2,4, 1, 4, 0,24, 0.00,60.00,Sunday
11,5244655.2456947709
47,594224.1902879989
71,594224.1902879989
184,1485560.4757199924
208,1485560.4757199924
334,0.0
914,3102763.332859167
968,62107.246827612355
1002,64425.63358611633
1026,64425.63358611633
1039,0.0
1069,0.0
2,5, 1, 5, 0, 1, 0.00,60.00,Monday
11,3784063.8655741268
47,594224.1902879989
71,594224.1902879989
184,1485560.4757199924
208,1485560.4757199924
334,0.0
914,1687415.274686368
968,16863.924879767226
1002,0.0
1026,0.0
1039,0.0
1069,0.0
2,5, 1, 5, 0, 2, 0.00,60.00,Monday
11,5310857.707841815
47,594224.1902879989
71,594224.1902879989
184,1485560.4757199924
208,1485560.4757199924
334,953943.7204588616
914,2259055.6955159825
968,18073.62585897975
1002,199600.7467741182
1026,199600.7467741182
1039,0.0
1069,0.0
2,5, 1, 5, 0, 3, 0.00,60.00,Monday
11,5770767.376184822
47,594224.1902879989
71,594224.1902879989
184,1485560.4757199924
208,1485560.4757199924
334,0.0
914,3646897.7658863055
968,44084.944290525294
1002,171742.79932359936
1026,171742.79932359936
1039,0.0
1069,0.0
2,5, 1, 5, 0, 4, 0.00,60.00,Monday
11,5742183.170974883
47,594224.1902879989
71,594224.1902879989
184,1485560.4757199924
208,1485560.4757199924
334,0.0
914,3625101.8036467914
968,37296.70132010049
1002,488818.95105650628
1026,488818.95105650628
1039,0.0
1069,0.0
2,5, 1, 5, 0, 5, 0.00,60.00,Monday
11,7234916.266612097
47,594224.1902879989
71,594224.1902879989
184,1485560.4757199924
208,1485560.4757199924
334,953758.3340199059
914,4169236.2366739299
968,32137.02991026918
1002,646896.9836613801
1026,646896.9836613801
1039,0.0
1069,0.0
2,5, 1, 5, 0, 6, 0.00,60.00,Monday
11,17368892.788975344
47,1188448.3805759978
71,1188448.3805759978
184,2971120.9514399848
208,2971120.9514399848
334,0.0
914,13209323.45695936
968,0.0
1002,113325075.08453769
1026,113325075.08453769
1039,0.0
1069,0.0
2,5, 1, 5, 0, 7, 0.00,60.00,Monday
11,17368892.788975344
47,1188448.3805759978
71,1188448.3805759978
184,2971120.9514399848
208,2971120.9514399848
334,0.0
914,13209323.456959358
968,0.0
1002,99139819.84252382
1026,99139819.84252382
1039,0.0
1069,0.0
2,5, 1, 5, 0, 8, 0.00,60.00,Monday
11,26657384.414480546
47,3565345.141727993
71,3565345.141727993
184,8913362.854319955
208,8913362.854319955
334,969352.9614732387
914,13209323.456959358
968,0.0
1002,83443999.06560111
1026,83443999.06560111
1039,0.0
1069,0.0
2,5, 1, 5, 0, 9, 0.00,60.00,Monday
11,49607942.92232506
47,7724914.473743984
71,7724914.473743984
184,26740088.562959859
208,26740088.562959859
334,1933616.4286618639
914,13209323.456959358
968,0.0
1002,42972387.998418558
1026,42972387.998418558
1039,0.0
1069,0.0
2,5, 1, 5, 0,10, 0.00,60.00,Monday
11,48707027.544552598
47,7724914.473743984
71,7724914.473743984
184,26740088.562959859
208,26740088.562959859
334,1032701.0508893962
914,13209323.456959358
968,0.0
1002,27021794.80085148
1026,27021794.80085148
1039,0.0
1069,0.0
2,5, 1, 5, 0,11, 0.00,60.00,Monday
11,49155215.394795048
47,7724914.473743984
71,7724914.473743984
184,26740088.562959859
208,26740088.562959859
334,1460955.2439612635
914,13209323.456959358
968,19933.657170581908
1002,14185334.036060354
1026,14185334.036060354
1039,0.0
1069,0.0
2,5, 1, 5, 0,12, 0.00,60.00,Monday
11,49250596.736268218
47,7724914.473743984
71,7724914.473743984
184,26740088.562959859
208,26740088.562959859
334,1530687.3419717334
914,13209323.456959358
968,45582.900633282945
1002,6220655.342903857
1026,6220655.342903857
1039,0.0
1069,0.0
2,5, 1, 5, 0,13, 0.00,60.00,Monday
11,49739784.89177282
47,7724914.473743984
71,7724914.473743984
184,26740088.562959859
208,26740088.562959859
334,2028063.522074732
914,13209323.456959358
968,37394.87603489126
1002,3672148.4157407029
1026,3672148.4157407029
1039,0.0
1069,0.0
2,5, 1, 5, 0,14, 0.00,60.00,Monday
11,49815585.248426068
47,7724914.473743984
71,7724914.473743984
184,26740088.562959859
208,26740088.562959859
334,2020856.903505878
914,13209323.456959358
968,120401.85125699017
1002,406838.2922765168
1026,406838.2922765168
1039,0.0
1069,0.0
2,5, 1, 5, 0,15, 0.00,60.00,Monday
11,49728888.391510408
47,7724914.473743984
71,7724914.473743984
184,26740088.562959859
208,26740088.562959859
334,1973146.6900506998
914,13209323.456959358
968,81415.20779650685
1002,0.0
1026,0.0
1039,0.0
1069,0.0
2,5, 1, 5, 0,16, 0.00,60.00,Monday
11,48727774.714884247
47,7724914.473743984
71,7724914.473743984
184,26740088.562959859
208,26740088.562959859
334,985393.8169564228
914,13209323.456959358
968,68054.40426462367
1002,0.0
1026,0.0
1039,0.0
1069,0.0
2,5, 1, 5, 0,17, 0.00,60.00,Monday
11,49680483.65113981
47,7724914.473743984
71,7724914.473743984
184,26740088.562959859
208,26740088.562959859
334,1996678.7998093037
914,13209323.456959358
968,9478.357667315566
1002,0.0
1026,0.0
1039,0.0
1069,0.0
2,5, 1, 5, 0,18, 0.00,60.00,Monday
11,33229534.778434099
47,4159569.3320159919
71,4159569.3320159919
184,14855604.757199923
208,14855604.757199923
334,977153.2066145868
914,13209323.456959358
968,27884.025644240384
1002,5888877.8023291169
1026,5888877.8023291169
1039,0.0
1069,0.0
2,5, 1, 5, 0,19, 0.00,60.00,Monday
11,26659686.037149185
47,3565345.141727993
71,3565345.141727993
184,8913362.854319955
208,8913362.854319955
334,971654.5841418847