Program Version,EnergyPlus, Version 9.0.1-bb7ca4f0da, YMD=2019.12.18 16:50
1,5,Environment Title[],Latitude[deg],Longitude[deg],Time Zone[],Elevation[m]
2,8,Day of Simulation[],Month[],Day of Month[],DST Indicator[1=yes 0=no],Hour[],StartMinute[],EndMinute[],DayType
3,5,Cumulative Day of Simulation[],Month[],Day of Month[],DST Indicator[1=yes 0=no],DayType  ! When Daily Report Variables Requested
4,2,Cumulative Days of Simulation[],Month[]  ! When Monthly Report Variables Requested
5,1,Cumulative Days of Simulation[] ! When Run Period Report Variables Requested
6,1,Calendar Year of Simulation[] ! When Annual Report Variables Requested
7,1,Environment,Site Outdoor Air Drybulb Temperature [C] !TimeStep
4438,1,BASE BLR,Boiler Heating Rate [W] !Hourly
End of Data Dictionary
1,BLUE-CANYON-AP ANN CLG 0.4% CONDNS DB=>MCWB,  39.30,-120.72,  -8.00,1609.00
2,1, 7,21, 0, 1, 0.00,15.00,SummerDesignDay
7,22.887999999999999
2,1, 7,21, 0, 1,15.00,30.00,SummerDesignDay
7,22.779999999999999
2,1, 7,21, 0, 1,30.00,45.00,SummerDesignDay
7,22.671999999999998
2,1, 7,21, 0, 1,45.00,60.00,SummerDesignDay
7,22.564
2,1, 7,21, 0, 1, 0.00,60.00,SummerDesignDay
4438,0.0
2,1, 7,21, 0, 2, 0.00,15.00,SummerDesignDay
7,22.491999999999999
2,1, 7,21, 0, 2,15.00,30.00,SummerDesignDay
7,22.419999999999999
2,1, 7,21, 0, 2,30.00,45.00,SummerDesignDay
7,22.348
2,1, 7,21, 0, 2,45.00,60.00,SummerDesignDay
7,22.275999999999998
2,1, 7,21, 0, 2, 0.00,60.00,SummerDesignDay
4438,0.0
2,1, 7,21, 0, 3, 0.00,15.00,SummerDesignDay
7,22.221999999999999
2,1, 7,21, 0, 3,15.00,30.00,SummerDesignDay
7,22.168
2,1, 7,21, 0, 3,30.00,45.00,SummerDesignDay
7,22.113999999999998
2,1, 7,21, 0, 3,45.00,60.00,SummerDesignDay
7,22.06
2,1, 7,21, 0, 3, 0.00,60.00,SummerDesignDay
4438,0.0
2,1, 7,21, 0, 4, 0.00,15.00,SummerDesignDay
7,22.006
2,1, 7,21, 0, 4,15.00,30.00,SummerDesignDay
7,21.951999999999999
2,1, 7,21, 0, 4,30.00,45.00,SummerDesignDay
7,21.898
2,1, 7,21, 0, 4,45.00,60.00,SummerDesignDay
7,21.843999999999999
2,1, 7,21, 0, 4, 0.00,60.00,SummerDesignDay
4438,0.0
2,1, 7,21, 0, 5, 0.00,15.00,SummerDesignDay
7,21.808
2,1, 7,21, 0, 5,15.00,30.00,SummerDesignDay
7,21.772
2,1, 7,21, 0, 5,30.00,45.00,SummerDesignDay
7,21.735999999999998
2,1, 7,21, 0, 5,45.00,60.00,SummerDesignDay
7,21.7
2,1, 7,21, 0, 5, 0.00,60.00,SummerDesignDay
4438,0.0
2,1, 7,21, 0, 6, 0.00,15.00,SummerDesignDay
7,21.735999999999998
2,1, 7,21, 0, 6,15.00,30.00,SummerDesignDay
7,21.772
2,1, 7,21, 0, 6,30.00,45.00,SummerDesignDay
7,21.808
2,1, 7,21, 0, 6,45.00,60.00,SummerDesignDay
7,21.843999999999999
2,1, 7,21, 0, 6, 0.00,60.00,SummerDesignDay
4438,0.0
2,1, 7,21, 0, 7, 0.00,15.00,SummerDesignDay
7,21.97
2,1, 7,21, 0, 7,15.00,30.00,SummerDesignDay
7,22.095999999999998
2,1, 7,21, 0, 7,30.00,45.00,SummerDesignDay
7,22.221999999999999
2,1, 7,21, 0, 7,45.00,60.00,SummerDesignDay
7,22.348
2,1, 7,21, 0, 7, 0.00,60.00,SummerDesignDay
4438,0.0
2,1, 7,21, 0, 8, 0.00,15.00,SummerDesignDay
7,22.654
2,1, 7,21, 0, 8,15.00,30.00,SummerDesignDay
7,22.96
2,1, 7,21, 0, 8,30.00,45.00,SummerDesignDay
7,23.266
2,1, 7,21, 0, 8,45.00,60.00,SummerDesignDay
7,23.572
2,1, 7,21, 0, 8, 0.00,60.00,SummerDesignDay
4438,0.0
2,1, 7,21, 0, 9, 0.00,15.00,SummerDesignDay
7,23.913999999999999
2,1, 7,21, 0, 9,15.00,30.00,SummerDesignDay
7,24.256
2,1, 7,21, 0, 9,30.00,45.00,SummerDesignDay
7,24.598
2,1, 7,21, 0, 9,45.00,60.00,SummerDesignDay
7,24.939999999999999
2,1, 7,21, 0, 9, 0.00,60.00,SummerDesignDay
4438,0.0
2,1, 7,21, 0,10, 0.00,15.00,SummerDesignDay
7,25.246
2,1, 7,21, 0,10,15.00,30.00,SummerDesignDay
7,25.552
2,1, 7,21, 0,10,30.00,45.00,SummerDesignDay
7,25.857999999999998
2,1, 7,21, 0,10,45.00,60.00,SummerDesignDay
7,26.163999999999999
2,1, 7,21, 0,10, 0.00,60.00,SummerDesignDay
4438,0.0
2,1, 7,21, 0,11, 0.00,15.00,SummerDesignDay
7,26.433999999999999
2,1, 7,21, 0,11,15.00,30.00,SummerDesignDay
7,26.703999999999998
2,1, 7,21, 0,11,30.00,45.00,SummerDesignDay
7,26.973999999999998
2,1, 7,21, 0,11,45.00,60.00,SummerDesignDay
7,27.244
2,1, 7,21, 0,11, 0.00,60.00,SummerDesignDay
4438,0.0
2,1, 7,21, 0,12, 0.00,15.00,SummerDesignDay
7,27.424
2,1, 7,21, 0,12,15.00,30.00,SummerDesignDay
7,27.604
2,1, 7,21, 0,12,30.00,45.00,SummerDesignDay
7,27.784
2,1, 7,21, 0,12,45.00,60.00,SummerDesignDay
7,27.964
2,1, 7,21, 0,12, 0.00,60.00,SummerDesignDay
4438,0.0
2,1, 7,21, 0,13, 0.00,15.00,SummerDesignDay
7,28.107999999999998
2,1, 7,21, 0,13,15.00,30.00,SummerDesignDay
7,28.252
2,1, 7,21, 0,13,30.00,45.00,SummerDesignDay
7,28.395999999999999
2,1, 7,21, 0,13,45.00,60.00,SummerDesignDay
7,28.54
2,1, 7,21, 0,13, 0.00,60.00,SummerDesignDay
4438,0.0
2,1, 7,21, 0,14, 0.00,15.00,SummerDesignDay
7,28.63
2,1, 7,21, 0,14,15.00,30.00,SummerDesignDay
7,28.72
2,1, 7,21, 0,14,30.00,45.00,SummerDesignDay
7,28.81
2,1, 7,21, 0,14,45.00,60.00,SummerDesignDay
7,28.9
2,1, 7,21, 0,14, 0.00,60.00,SummerDesignDay
4438,0.0
2,1, 7,21, 0,15, 0.00,15.00,SummerDesignDay
7,28.9
2,1, 7,21, 0,15,15.00,30.00,SummerDesignDay
7,28.9
2,1, 7,21, 0,15,30.00,45.00,SummerDesignDay
7,28.9
2,1, 7,21, 0,15,45.00,60.00,SummerDesignDay
7,28.9
2,1, 7,21, 0,15, 0.00,60.00,SummerDesignDay
4438,0.0
2,1, 7,21, 0,16, 0.00,15.00,SummerDesignDay
7,28.791999999999999
2,1, 7,21, 0,16,15.00,30.00,SummerDesignDay
7,28.683999999999999
2,1, 7,21, 0,16,30.00,45.00,SummerDesignDay
7,28.575999999999998
2,1, 7,21, 0,16,45.00,60.00,SummerDesignDay
7,28.468
2,1, 7,21, 0,16, 0.00,60.00,SummerDesignDay
4438,0.0
2,1, 7,21, 0,17, 0.00,15.00,SummerDesignDay
7,28.323999999999999
2,1, 7,21, 0,17,15.00,30.00,SummerDesignDay
7,28.18
2,1, 7,21, 0,17,30.00,45.00,SummerDesignDay
7,28.035999999999999
2,1, 7,21, 0,17,45.00,60.00,SummerDesignDay
7,27.892
2,1, 7,21, 0,17, 0.00,60.00,SummerDesignDay
4438,0.0
2,1, 7,21, 0,18, 0.00,15.00,SummerDesignDay
7,27.712
2,1, 7,21, 0,18,15.00,30.00,SummerDesignDay
7,27.532
2,1, 7,21, 0,18,30.00,45.00,SummerDesignDay
7,27.351999999999998
2,1, 7,21, 0,18,45.00,60.00,SummerDesignDay
7,27.171999999999998
2,1, 7,21, 0,18, 0.00,60.00,SummerDesignDay
4438,0.0
2,1, 7,21, 0,19, 0.00,15.00,SummerDesignDay
7,26.901999999999999
2,1, 7,21, 0,19,15.00,30.00,SummerDesignDay
7,26.631999999999999
2,1, 7,21, 0,19,30.00,45.00,SummerDesignDay
7,26.362
2,1, 7,21, 0,19,45.00,60.00,SummerDesignDay
7,26.092
2,1, 7,21, 0,19, 0.00,60.00,SummerDesignDay
4438,0.0
2,1, 7,21, 0,20, 0.00,15.00,SummerDesignDay
7,25.894
2,1, 7,21, 0,20,15.00,30.00,SummerDesignDay
7,25.695999999999999
2,1, 7,21, 0,20,30.00,45.00,SummerDesignDay
7,25.497999999999999
2,1, 7,21, 0,20,45.00,60.00,SummerDesignDay
7,25.299999999999998
2,1, 7,21, 0,20, 0.00,60.00,SummerDesignDay
4438,0.0
2,1, 7,21, 0,21, 0.00,15.00,SummerDesignDay
7,25.137999999999999
2,1, 7,21, 0,21,15.00,30.00,SummerDesignDay
7,24.976
2,1, 7,21, 0,21,30.00,45.00,SummerDesignDay
7,24.814
2,1, 7,21, 0,21,45.00,60.00,SummerDesignDay
7,24.651999999999999
2,1, 7,21, 0,21, 0.00,60.00,SummerDesignDay
4438,0.0
2,1, 7,21, 0,22, 0.00,15.00,SummerDesignDay
7,24.49
2,1, 7,21, 0,22,15.00,30.00,SummerDesignDay
7,24.328
2,1, 7,21, 0,22,30.00,45.00,SummerDesignDay
7,24.165999999999998
2,1, 7,21, 0,22,45.00,60.00,SummerDesignDay
7,24.003999999999999
2,1, 7,21, 0,22, 0.00,60.00,SummerDesignDay
4438,0.0
2,1, 7,21, 0,23, 0.00,15.00,SummerDesignDay
7,23.878
2,1, 7,21, 0,23,15.00,30.00,SummerDesignDay
7,23.752
2,1, 7,21, 0,23,30.00,45.00,SummerDesignDay
7,23.625999999999999
2,1, 7,21, 0,23,45.00,60.00,SummerDesignDay
7,23.5
2,1, 7,21, 0,23, 0.00,60.00,SummerDesignDay
4438,0.0
2,1, 7,21, 0,24, 0.00,15.00,SummerDesignDay
7,23.374
2,1, 7,21, 0,24,15.00,30.00,SummerDesignDay
7,23.247999999999999
2,1, 7,21, 0,24,30.00,45.00,SummerDesignDay
7,23.122
2,1, 7,21, 0,24,45.00,60.00,SummerDesignDay
7,22.996
2,1, 7,21, 0,24, 0.00,60.00,SummerDesignDay
4438,0.0
1,BLUE-CANYON-AP ANN CLG 0.4% CONDNS DP=>MCDB,  39.30,-120.72,  -8.00,1609.00
2,1, 7,21, 0, 1, 0.00,15.00,SummerDesignDay
7,16.488
2,1, 7,21, 0, 1,15.00,30.00,SummerDesignDay
7,16.38
2,1, 7,21, 0, 1,30.00,45.00,SummerDesignDay
7,16.272
2,1, 7,21, 0, 1,45.00,60.00,SummerDesignDay
7,16.164
2,1, 7,21, 0, 1, 0.00,60.00,SummerDesignDay
4438,0.0
2,1, 7,21, 0, 2, 0.00,15.00,SummerDesignDay
7,16.092
2,1, 7,21, 0, 2,15.00,30.00,SummerDesignDay
7,16.02
2,1, 7,21, 0, 2,30.00,45.00,SummerDesignDay
7,15.948
2,1, 7,21, 0, 2,45.00,60.00,SummerDesignDay
7,15.876
2,1, 7,21, 0, 2, 0.00,60.00,SummerDesignDay
4438,0.0
2,1, 7,21, 0, 3, 0.00,15.00,SummerDesignDay
7,15.822
2,1, 7,21, 0, 3,15.00,30.00,SummerDesignDay
7,15.768
2,1, 7,21, 0, 3,30.00,45.00,SummerDesignDay
7,15.714
2,1, 7,21, 0, 3,45.00,60.00,SummerDesignDay
7,15.66
2,1, 7,21, 0, 3, 0.00,60.00,SummerDesignDay
4438,0.0
2,1, 7,21, 0, 4, 0.00,15.00,SummerDesignDay
7,15.606000000000002
2,1, 7,21, 0, 4,15.00,30.00,SummerDesignDay
7,15.552
2,1, 7,21, 0, 4,30.00,45.00,SummerDesignDay
7,15.498000000000001
2,1, 7,21, 0, 4,45.00,60.00,SummerDesignDay
7,15.443999999999999
2,1, 7,21, 0, 4, 0.00,60.00,SummerDesignDay
4438,0.0
2,1, 7,21, 0, 5, 0.00,15.00,SummerDesignDay
7,15.408000000000002
2,1, 7,21, 0, 5,15.00,30.00,SummerDesignDay
7,15.372
2,1, 7,21, 0, 5,30.00,45.00,SummerDesignDay
7,15.336
2,1, 7,21, 0, 5,45.00,60.00,SummerDesignDay
7,15.3
2,1, 7,21, 0, 5, 0.00,60.00,SummerDesignDay
4438,0.0
2,1, 7,21, 0, 6, 0.00,15.00,SummerDesignDay
7,15.336
2,1, 7,21, 0, 6,15.00,30.00,SummerDesignDay
7,15.372
2,1, 7,21, 0, 6,30.00,45.00,SummerDesignDay
7,15.408000000000002
2,1, 7,21, 0, 6,45.00,60.00,SummerDesignDay
7,15.443999999999999
2,1, 7,21, 0, 6, 0.00,60.00,SummerDesignDay
4438,0.0
2,1, 7,21, 0, 7, 0.00,15.00,SummerDesignDay
7,15.57
2,1, 7,21, 0, 7,15.00,30.00,SummerDesignDay
7,15.696
2,1, 7,21, 0, 7,30.00,45.00,SummerDesignDay
7,15.822
2,1, 7,21, 0, 7,45.00,60.00,SummerDesignDay
7,15.948
2,1, 7,21, 0, 7, 0.00,60.00,SummerDesignDay
4438,0.0
2,1, 7,21, 0, 8, 0.00,15.00,SummerDesignDay
7,16.254
2,1, 7,21, 0, 8,15.00,30.00,SummerDesignDay
7,16.560000000000004
2,1, 7,21, 0, 8,30.00,45.00,SummerDesignDay
7,16.866
2,1, 7,21, 0, 8,45.00,60.00,SummerDesignDay
7,17.172
2,1, 7,21, 0, 8, 0.00,60.00,SummerDesignDay
4438,0.0
2,1, 7,21, 0, 9, 0.00,15.00,SummerDesignDay
7,17.514
2,1, 7,21, 0, 9,15.00,30.00,SummerDesignDay
7,17.856
2,1, 7,21, 0, 9,30.00,45.00,SummerDesignDay
7,18.198
2,1, 7,21, 0, 9,45.00,60.00,SummerDesignDay
7,18.54
2,1, 7,21, 0, 9, 0.00,60.00,SummerDesignDay
4438,0.0
2,1, 7,21, 0,10, 0.00,15.00,SummerDesignDay
7,18.846
2,1, 7,21, 0,10,15.00,30.00,SummerDesignDay
7,19.152
2,1, 7,21, 0,10,30.00,45.00,SummerDesignDay
7,19.458
2,1, 7,21, 0,10,45.00,60.00,SummerDesignDay
7,19.764
2,1, 7,21, 0,10, 0.00,60.00,SummerDesignDay
4438,0.0
2,1, 7,21, 0,11, 0.00,15.00,SummerDesignDay
7,20.034
2,1, 7,21, 0,11,15.00,30.00,SummerDesignDay
7,20.304
2,1, 7,21, 0,11,30.00,45.00,SummerDesignDay
7,20.573999999999999
2,1, 7,21, 0,11,45.00,60.00,SummerDesignDay
7,20.844
2,1, 7,21, 0,11, 0.00,60.00,SummerDesignDay
4438,0.0
2,1, 7,21, 0,12, 0.00,15.00,SummerDesignDay
7,21.024
2,1, 7,21, 0,12,15.00,30.00,SummerDesignDay
7,21.204
2,1, 7,21, 0,12,30.00,45.00,SummerDesignDay
7,21.384
2,1, 7,21, 0,12,45.00,60.00,SummerDesignDay
7,21.564
2,1, 7,21, 0,12, 0.00,60.00,SummerDesignDay
4438,0.0
2,1, 7,21, 0,13, 0.00,15.00,SummerDesignDay
7,21.708
2,1, 7,21, 0,13,15.00,30.00,SummerDesignDay
7,21.852
2,1, 7,21, 0,13,30.00,45.00,SummerDesignDay
7,21.996
2,1, 7,21, 0,13,45.00,60.00,SummerDesignDay
7,22.14
2,1, 7,21, 0,13, 0.00,60.00,SummerDesignDay
4438,0.0
2,1, 7,21, 0,14, 0.00,15.00,SummerDesignDay
7,22.23
2,1, 7,21, 0,14,15.00,30.00,SummerDesignDay
7,22.32
2,1, 7,21, 0,14,30.00,45.00,SummerDesignDay
7,22.41
2,1, 7,21, 0,14,45.00,60.00,SummerDesignDay
7,22.5
2,1, 7,21, 0,14, 0.00,60.00,SummerDesignDay
4438,0.0
2,1, 7,21, 0,15, 0.00,15.00,SummerDesignDay
7,22.5
2,1, 7,21, 0,15,15.00,30.00,SummerDesignDay
7,22.5
2,1, 7,21, 0,15,30.00,45.00,SummerDesignDay
7,22.5
2,1, 7,21, 0,15,45.00,60.00,SummerDesignDay
7,22.5
2,1, 7,21, 0,15, 0.00,60.00,SummerDesignDay
4438,0.0
2,1, 7,21, 0,16, 0.00,15.00,SummerDesignDay
7,22.392
2,1, 7,21, 0,16,15.00,30.00,SummerDesignDay
7,22.284
2,1, 7,21, 0,16,30.00,45.00,SummerDesignDay
7,22.176
2,1, 7,21, 0,16,45.00,60.00,SummerDesignDay
7,22.068
2,1, 7,21, 0,16, 0.00,60.00,SummerDesignDay
4438,0.0
2,1, 7,21, 0,17, 0.00,15.00,SummerDesignDay
7,21.924
2,1, 7,21, 0,17,15.00,30.00,SummerDesignDay
7,21.78
2,1, 7,21, 0,17,30.00,45.00,SummerDesignDay
7,21.636
2,1, 7,21, 0,17,45.00,60.00,SummerDesignDay
7,21.492
2,1, 7,21, 0,17, 0.00,60.00,SummerDesignDay
4438,0.0
2,1, 7,21, 0,18, 0.00,15.00,SummerDesignDay
7,21.312
2,1, 7,21, 0,18,15.00,30.00,SummerDesignDay
7,21.132
2,1, 7,21, 0,18,30.00,45.00,SummerDesignDay
7,20.951999999999999
2,1, 7,21, 0,18,45.00,60.00,SummerDesignDay
7,20.772
2,1, 7,21, 0,18, 0.00,60.00,SummerDesignDay
4438,0.0
2,1, 7,21, 0,19, 0.00,15.00,SummerDesignDay
7,20.502
2,1, 7,21, 0,19,15.00,30.00,SummerDesignDay
7,20.232
2,1, 7,21, 0,19,30.00,45.00,SummerDesignDay
7,19.962
2,1, 7,21, 0,19,45.00,60.00,SummerDesignDay
7,19.692
2,1, 7,21, 0,19, 0.00,60.00,SummerDesignDay
4438,0.0
2,1, 7,21, 0,20, 0.00,15.00,SummerDesignDay
7,19.494
2,1, 7,21, 0,20,15.00,30.00,SummerDesignDay
7,19.296
2,1, 7,21, 0,20,30.00,45.00,SummerDesignDay
7,19.098
2,1, 7,21, 0,20,45.00,60.00,SummerDesignDay
7,18.9
2,1, 7,21, 0,20, 0.00,60.00,SummerDesignDay
4438,0.0
2,1, 7,21, 0,21, 0.00,15.00,SummerDesignDay
7,18.738
2,1, 7,21, 0,21,15.00,30.00,SummerDesignDay
7,18.576
2,1, 7,21, 0,21,30.00,45.00,SummerDesignDay
7,18.414
2,1, 7,21, 0,21,45.00,60.00,SummerDesignDay
7,18.252
2,1, 7,21, 0,21, 0.00,60.00,SummerDesignDay
4438,0.0
2,1, 7,21, 0,22, 0.00,15.00,SummerDesignDay
7,18.09
2,1, 7,21, 0,22,15.00,30.00,SummerDesignDay
7,17.928
2,1, 7,21, 0,22,30.00,45.00,SummerDesignDay
7,17.766
2,1, 7,21, 0,22,45.00,60.00,SummerDesignDay
7,17.604
2,1, 7,21, 0,22, 0.00,60.00,SummerDesignDay
4438,0.0
2,1, 7,21, 0,23, 0.00,15.00,SummerDesignDay
7,17.478
2,1, 7,21, 0,23,15.00,30.00,SummerDesignDay
7,17.352
2,1, 7,21, 0,23,30.00,45.00,SummerDesignDay
7,17.226
2,1, 7,21, 0,23,45.00,60.00,SummerDesignDay
7,17.1
2,1, 7,21, 0,23, 0.00,60.00,SummerDesignDay
4438,0.0
2,1, 7,21, 0,24, 0.00,15.00,SummerDesignDay
7,16.974
2,1, 7,21, 0,24,15.00,30.00,SummerDesignDay
7,16.848
2,1, 7,21, 0,24,30.00,45.00,SummerDesignDay
7,16.722
2,1, 7,21, 0,24,45.00,60.00,SummerDesignDay
7,16.596
2,1, 7,21, 0,24, 0.00,60.00,SummerDesignDay
4438,0.0
1,BLUE-CANYON-AP ANN HTG 99.6% CONDNS DB,  39.30,-120.72,  -8.00,1609.00
2,1, 1,21, 0, 1, 0.00,15.00,WinterDesignDay
7,-6.0
2,1, 1,21, 0, 1,15.00,30.00,WinterDesignDay
7,-6.0
2,1, 1,21, 0, 1,30.00,45.00,WinterDesignDay
7,-6.0
2,1, 1,21, 0, 1,45.00,60.00,WinterDesignDay
7,-6.0
2,1, 1,21, 0, 1, 0.00,60.00,WinterDesignDay
4438,75944.75818722532
2,1, 1,21, 0, 2, 0.00,15.00,WinterDesignDay
7,-6.0
2,1, 1,21, 0, 2,15.00,30.00,WinterDesignDay
7,-6.0
2,1, 1,21, 0, 2,30.00,45.00,WinterDesignDay
7,-6.0
2,1, 1,21, 0, 2,45.00,60.00,WinterDesignDay
7,-6.0
2,1, 1,21, 0, 2, 0.00,60.00,WinterDesignDay
4438,78887.36380754598
2,1, 1,21, 0, 3, 0.00,15.00,WinterDesignDay
7,-6.0
2,1, 1,21, 0, 3,15.00,30.00,WinterDesignDay
7,-6.0
2,1, 1,21, 0, 3,30.00,45.00,WinterDesignDay
7,-6.0
2,1, 1,21, 0, 3,45.00,60.00,WinterDesignDay
7,-6.0
2,1, 1,21, 0, 3, 0.00,60.00,WinterDesignDay
4438,85397.71745975291
2,1, 1,21, 0, 4, 0.00,15.00,WinterDesignDay
7,-6.0
2,1, 1,21, 0, 4,15.00,30.00,WinterDesignDay
7,-6.0
2,1, 1,21, 0, 4,30.00,45.00,WinterDesignDay
7,-6.0
2,1, 1,21, 0, 4,45.00,60.00,WinterDesignDay
7,-6.0
2,1, 1,21, 0, 4, 0.00,60.00,WinterDesignDay
4438,89771.41053322282
2,1, 1,21, 0, 5, 0.00,15.00,WinterDesignDay
7,-6.0
2,1, 1,21, 0, 5,15.00,30.00,WinterDesignDay
7,-6.0
2,1, 1,21, 0, 5,30.00,45.00,WinterDesignDay
7,-6.0
2,1, 1,21, 0, 5,45.00,60.00,WinterDesignDay
7,-6.0
2,1, 1,21, 0, 5, 0.00,60.00,WinterDesignDay
4438,92396.2499786859
2,1, 1,21, 0, 6, 0.00,15.00,WinterDesignDay
7,-6.0
2,1, 1,21, 0, 6,15.00,30.00,WinterDesignDay
7,-6.0
2,1, 1,21, 0, 6,30.00,45.00,WinterDesignDay
7,-6.0
2,1, 1,21, 0, 6,45.00,60.00,WinterDesignDay
7,-6.0
2,1, 1,21, 0, 6, 0.00,60.00,WinterDesignDay
4438,137298.79374991777
2,1, 1,21, 0, 7, 0.00,15.00,WinterDesignDay
7,-6.0
2,1, 1,21, 0, 7,15.00,30.00,WinterDesignDay
7,-6.0
2,1, 1,21, 0, 7,30.00,45.00,WinterDesignDay
7,-6.0
2,1, 1,21, 0, 7,45.00,60.00,WinterDesignDay
7,-6.0
2,1, 1,21, 0, 7, 0.00,60.00,WinterDesignDay
4438,185784.37508005097
2,1, 1,21, 0, 8, 0.00,15.00,WinterDesignDay
7,-6.0
2,1, 1,21, 0, 8,15.00,30.00,WinterDesignDay
7,-6.0
2,1, 1,21, 0, 8,30.00,45.00,WinterDesignDay
7,-6.0
2,1, 1,21, 0, 8,45.00,60.00,WinterDesignDay
7,-6.0
2,1, 1,21, 0, 8, 0.00,60.00,WinterDesignDay
4438,161511.67693728594
2,1, 1,21, 0, 9, 0.00,15.00,WinterDesignDay
7,-6.0
2,1, 1,21, 0, 9,15.00,30.00,WinterDesignDay
7,-6.0
2,1, 1,21, 0, 9,30.00,45.00,WinterDesignDay
7,-6.0
2,1, 1,21, 0, 9,45.00,60.00,WinterDesignDay
7,-6.0
2,1, 1,21, 0, 9, 0.00,60.00,WinterDesignDay
4438,146560.18164292869
2,1, 1,21, 0,10, 0.00,15.00,WinterDesignDay
7,-6.0
2,1, 1,21, 0,10,15.00,30.00,WinterDesignDay
7,-6.0
2,1, 1,21, 0,10,30.00,45.00,WinterDesignDay
7,-6.0
2,1, 1,21, 0,10,45.00,60.00,WinterDesignDay
7,-6.0
2,1, 1,21, 0,10, 0.00,60.00,WinterDesignDay
4438,139963.64202912627
2,1, 1,21, 0,11, 0.00,15.00,WinterDesignDay
7,-6.0
2,1, 1,21, 0,11,15.00,30.00,WinterDesignDay
7,-6.0
2,1, 1,21, 0,11,30.00,45.00,WinterDesignDay
7,-6.0
2,1, 1,21, 0,11,45.00,60.00,WinterDesignDay
7,-6.0
2,1, 1,21, 0,11, 0.00,60.00,WinterDesignDay
4438,136169.40046088538
2,1, 1,21, 0,12, 0.00,15.00,WinterDesignDay
7,-6.0
2,1, 1,21, 0,12,15.00,30.00,WinterDesignDay
7,-6.0
2,1, 1,21, 0,12,30.00,45.00,WinterDesignDay
7,-6.0
2,1, 1,21, 0,12,45.00,60.00,WinterDesignDay
7,-6.0
2,1, 1,21, 0,12, 0.00,60.00,WinterDesignDay
4438,133700.03413315846
2,1, 1,21, 0,13, 0.00,15.00,WinterDesignDay
7,-6.0
2,1, 1,21, 0,13,15.00,30.00,WinterDesignDay
7,-6.0
2,1, 1,21, 0,13,30.00,45.00,WinterDesignDay
7,-6.0
2,1, 1,21, 0,13,45.00,60.00,WinterDesignDay
7,-6.0
2,1, 1,21, 0,13, 0.00,60.00,WinterDesignDay
4438,131992.94956261916
2,1, 1,21, 0,14, 0.00,15.00,WinterDesignDay
7,-6.0
2,1, 1,21, 0,14,15.00,30.00,WinterDesignDay
7,-6.0
2,1, 1,21, 0,14,30.00,45.00,WinterDesignDay
7,-6.0
2,1, 1,21, 0,14,45.00,60.00,WinterDesignDay
7,-6.0
2,1, 1,21, 0,14, 0.00,60.00,WinterDesignDay
4438,130725.82929684565
2,1, 1,21, 0,15, 0.00,15.00,WinterDesignDay
7,-6.0
2,1, 1,21, 0,15,15.00,30.00,WinterDesignDay
7,-6.0
2,1, 1,21, 0,15,30.00,45.00,WinterDesignDay
7,-6.0
2,1, 1,21, 0,15,45.00,60.00,WinterDesignDay
7,-6.0
2,1, 1,21, 0,15, 0.00,60.00,WinterDesignDay
4438,129844.17963881431
2,1, 1,21, 0,16, 0.00,15.00,WinterDesignDay
7,-6.0
2,1, 1,21, 0,16,15.00,30.00,WinterDesignDay
7,-6.0
2,1, 1,21, 0,16,30.00,45.00,WinterDesignDay
7,-6.0
2,1, 1,21, 0,16,45.00,60.00,WinterDesignDay
7,-6.0
2,1, 1,21, 0,16, 0.00,60.00,WinterDesignDay
4438,129182.34190774149
2,1, 1,21, 0,17, 0.00,15.00,WinterDesignDay
7,-6.0
2,1, 1,21, 0,17,15.00,30.00,WinterDesignDay
7,-6.0
2,1, 1,21, 0,17,30.00,45.00,WinterDesignDay
7,-6.0
2,1, 1,21, 0,17,45.00,60.00,WinterDesignDay
7,-6.0
2,1, 1,21, 0,17, 0.00,60.00,WinterDesignDay
4438,128688.78455677048
2,1, 1,21, 0,18, 0.00,15.00,WinterDesignDay
7,-6.0
2,1, 1,21, 0,18,15.00,30.00,WinterDesignDay
7,-6.0
2,1, 1,21, 0,18,30.00,45.00,WinterDesignDay
7,-6.0
2,1, 1,21, 0,18,45.00,60.00,WinterDesignDay
7,-6.0
2,1, 1,21, 0,18, 0.00,60.00,WinterDesignDay
4438,128317.69244864506
2,1, 1,21, 0,19, 0.00,15.00,WinterDesignDay
7,-6.0
2,1, 1,21, 0,19,15.00,30.00,WinterDesignDay
7,-6.0
2,1, 1,21, 0,19,30.00,45.00,WinterDesignDay
7,-6.0
2,1, 1,21, 0,19,45.00,60.00,WinterDesignDay
7,-6.0
2,1, 1,21, 0,19, 0.00,60.00,WinterDesignDay
4438,128048.45253407545
2,1, 1,21, 0,20, 0.00,15.00,WinterDesignDay
7,-6.0
2,1, 1,21, 0,20,15.00,30.00,WinterDesignDay
7,-6.0
2,1, 1,21, 0,20,30.00,45.00,WinterDesignDay
7,-6.0
2,1, 1,21, 0,20,45.00,60.00,WinterDesignDay
7,-6.0
2,1, 1,21, 0,20, 0.00,60.00,WinterDesignDay
4438,127846.20881295706
2,1, 1,21, 0,21, 0.00,15.00,WinterDesignDay
7,-6.0
2,1, 1,21, 0,21,15.00,30.00,WinterDesignDay
7,-6.0
2,1, 1,21, 0,21,30.00,45.00,WinterDesignDay
7,-6.0
2,1, 1,21, 0,21,45.00,60.00,WinterDesignDay
7,-6.0
2,1, 1,21, 0,21, 0.00,60.00,WinterDesignDay
4438,127689.32062760488
2,1, 1,21, 0,22, 0.00,15.00,WinterDesignDay
7,-6.0
2,1, 1,21, 0,22,15.00,30.00,WinterDesignDay
7,-6.0
2,1, 1,21, 0,22,30.00,45.00,WinterDesignDay
7,-6.0
2,1, 1,21, 0,22,45.00,60.00,WinterDesignDay
7,-6.0
2,1, 1,21, 0,22, 0.00,60.00,WinterDesignDay
4438,78034.27166011659
2,1, 1,21, 0,23, 0.00,15.00,WinterDesignDay
7,-6.0
2,1, 1,21, 0,23,15.00,30.00,WinterDesignDay
7,-6.0
2,1, 1,21, 0,23,30.00,45.00,WinterDesignDay
7,-6.0
2,1, 1,21, 0,23,45.00,60.00,WinterDesignDay
7,-6.0
2,1, 1,21, 0,23, 0.00,60.00,WinterDesignDay
4438,91802.96528180127
2,1, 1,21, 0,24, 0.00,15.00,WinterDesignDay
7,-6.0
2,1, 1,21, 0,24,15.00,30.00,WinterDesignDay
7,-6.0
2,1, 1,21, 0,24,30.00,45.00,WinterDesignDay
7,-6.0
2,1, 1,21, 0,24,45.00,60.00,WinterDesignDay
7,-6.0
2,1, 1,21, 0,24, 0.00,60.00,WinterDesignDay
4438,99209.8808967817
1,BLUE-CANYON-AP AUG CLG 0.4% CONDNS DB=>MCWB,  39.30,-120.72,  -8.00,1609.00
2,1, 8,21, 0, 1, 0.00,15.00,SummerDesignDay
7,23.42
2,1, 8,21, 0, 1,15.00,30.00,SummerDesignDay
7,23.3
2,1, 8,21, 0, 1,30.00,45.00,SummerDesignDay
7,23.18
2,1, 8,21, 0, 1,45.00,60.00,SummerDesignDay
7,23.060000000000004
2,1, 8,21, 0, 1, 0.00,60.00,SummerDesignDay
4438,0.0
2,1, 8,21, 0, 2, 0.00,15.00,SummerDesignDay
7,22.98
2,1, 8,21, 0, 2,15.00,30.00,SummerDesignDay
7,22.900000000000003
2,1, 8,21, 0, 2,30.00,45.00,SummerDesignDay
7,22.82
2,1, 8,21, 0, 2,45.00,60.00,SummerDesignDay
7,22.740000000000003
2,1, 8,21, 0, 2, 0.00,60.00,SummerDesignDay
4438,0.0
2,1, 8,21, 0, 3, 0.00,15.00,SummerDesignDay
7,22.68
2,1, 8,21, 0, 3,15.00,30.00,SummerDesignDay
7,22.62
2,1, 8,21, 0, 3,30.00,45.00,SummerDesignDay
7,22.560000000000004
2,1, 8,21, 0, 3,45.00,60.00,SummerDesignDay
7,22.5
2,1, 8,21, 0, 3, 0.00,60.00,SummerDesignDay
4438,0.0
2,1, 8,21, 0, 4, 0.00,15.00,SummerDesignDay
7,22.44
2,1, 8,21, 0, 4,15.00,30.00,SummerDesignDay
7,22.380000000000004
2,1, 8,21, 0, 4,30.00,45.00,SummerDesignDay
7,22.32
2,1, 8,21, 0, 4,45.00,60.00,SummerDesignDay
7,22.26
2,1, 8,21, 0, 4, 0.00,60.00,SummerDesignDay
4438,0.0
2,1, 8,21, 0, 5, 0.00,15.00,SummerDesignDay
7,22.220000000000004
2,1, 8,21, 0, 5,15.00,30.00,SummerDesignDay
7,22.18
2,1, 8,21, 0, 5,30.00,45.00,SummerDesignDay
7,22.14
2,1, 8,21, 0, 5,45.00,60.00,SummerDesignDay
7,22.1
2,1, 8,21, 0, 5, 0.00,60.00,SummerDesignDay
4438,0.0
2,1, 8,21, 0, 6, 0.00,15.00,SummerDesignDay
7,22.14
2,1, 8,21, 0, 6,15.00,30.00,SummerDesignDay
7,22.18
2,1, 8,21, 0, 6,30.00,45.00,SummerDesignDay
7,22.220000000000004
2,1, 8,21, 0, 6,45.00,60.00,SummerDesignDay
7,22.26
2,1, 8,21, 0, 6, 0.00,60.00,SummerDesignDay
4438,0.0
2,1, 8,21, 0, 7, 0.00,15.00,SummerDesignDay
7,22.400000000000003
2,1, 8,21, 0, 7,15.00,30.00,SummerDesignDay
7,22.54
2,1, 8,21, 0, 7,30.00,45.00,SummerDesignDay
7,22.68
2,1, 8,21, 0, 7,45.00,60.00,SummerDesignDay
7,22.82
2,1, 8,21, 0, 7, 0.00,60.00,SummerDesignDay
4438,0.0
2,1, 8,21, 0, 8, 0.00,15.00,SummerDesignDay
7,23.160000000000005
2,1, 8,21, 0, 8,15.00,30.00,SummerDesignDay
7,23.5
2,1, 8,21, 0, 8,30.00,45.00,SummerDesignDay
7,23.840000000000005
2,1, 8,21, 0, 8,45.00,60.00,SummerDesignDay
7,24.18
2,1, 8,21, 0, 8, 0.00,60.00,SummerDesignDay
4438,0.0
2,1, 8,21, 0, 9, 0.00,15.00,SummerDesignDay
7,24.560000000000004
2,1, 8,21, 0, 9,15.00,30.00,SummerDesignDay
7,24.94
2,1, 8,21, 0, 9,30.00,45.00,SummerDesignDay
7,25.32
2,1, 8,21, 0, 9,45.00,60.00,SummerDesignDay
7,25.700000000000004
2,1, 8,21, 0, 9, 0.00,60.00,SummerDesignDay
4438,0.0
2,1, 8,21, 0,10, 0.00,15.00,SummerDesignDay
7,26.04
2,1, 8,21, 0,10,15.00,30.00,SummerDesignDay
7,26.380000000000004
2,1, 8,21, 0,10,30.00,45.00,SummerDesignDay
7,26.720000000000004
2,1, 8,21, 0,10,45.00,60.00,SummerDesignDay
7,27.060000000000004
2,1, 8,21, 0,10, 0.00,60.00,SummerDesignDay
4438,0.0
2,1, 8,21, 0,11, 0.00,15.00,SummerDesignDay
7,27.36
2,1, 8,21, 0,11,15.00,30.00,SummerDesignDay
7,27.66
2,1, 8,21, 0,11,30.00,45.00,SummerDesignDay
7,27.96
2,1, 8,21, 0,11,45.00,60.00,SummerDesignDay
7,28.26
2,1, 8,21, 0,11, 0.00,60.00,SummerDesignDay
4438,0.0
2,1, 8,21, 0,12, 0.00,15.00,SummerDesignDay
7,28.46
2,1, 8,21, 0,12,15.00,30.00,SummerDesignDay
7,28.66
2,1, 8,21, 0,12,30.00,45.00,SummerDesignDay
7,28.860000000000004
2,1, 8,21, 0,12,45.00,60.00,SummerDesignDay
7,29.060000000000004
2,1, 8,21, 0,12, 0.00,60.00,SummerDesignDay
4438,0.0
2,1, 8,21, 0,13, 0.00,15.00,SummerDesignDay
7,29.220000000000004
2,1, 8,21, 0,13,15.00,30.00,SummerDesignDay
7,29.380000000000004
2,1, 8,21, 0,13,30.00,45.00,SummerDesignDay
7,29.540000000000004
2,1, 8,21, 0,13,45.00,60.00,SummerDesignDay
7,29.700000000000004
2,1, 8,21, 0,13, 0.00,60.00,SummerDesignDay
4438,0.0
2,1, 8,21, 0,14, 0.00,15.00,SummerDesignDay
7,29.8
2,1, 8,21, 0,14,15.00,30.00,SummerDesignDay
7,29.900000000000003
2,1, 8,21, 0,14,30.00,45.00,SummerDesignDay
7,30.0
2,1, 8,21, 0,14,45.00,60.00,SummerDesignDay
7,30.1
2,1, 8,21, 0,14, 0.00,60.00,SummerDesignDay
4438,0.0
2,1, 8,21, 0,15, 0.00,15.00,SummerDesignDay
7,30.1
2,1, 8,21, 0,15,15.00,30.00,SummerDesignDay
7,30.1
2,1, 8,21, 0,15,30.00,45.00,SummerDesignDay
7,30.1
2,1, 8,21, 0,15,45.00,60.00,SummerDesignDay
7,30.1
2,1, 8,21, 0,15, 0.00,60.00,SummerDesignDay
4438,0.0
2,1, 8,21, 0,16, 0.00,15.00,SummerDesignDay
7,29.98
2,1, 8,21, 0,16,15.00,30.00,SummerDesignDay
7,29.860000000000004
2,1, 8,21, 0,16,30.00,45.00,SummerDesignDay
7,29.740000000000003
2,1, 8,21, 0,16,45.00,60.00,SummerDesignDay
7,29.62
2,1, 8,21, 0,16, 0.00,60.00,SummerDesignDay
4438,0.0
2,1, 8,21, 0,17, 0.00,15.00,SummerDesignDay
7,29.46
2,1, 8,21, 0,17,15.00,30.00,SummerDesignDay
7,29.3
2,1, 8,21, 0,17,30.00,45.00,SummerDesignDay
7,29.14
2,1, 8,21, 0,17,45.00,60.00,SummerDesignDay
7,28.98
2,1, 8,21, 0,17, 0.00,60.00,SummerDesignDay
4438,0.0
2,1, 8,21, 0,18, 0.00,15.00,SummerDesignDay
7,28.78
2,1, 8,21, 0,18,15.00,30.00,SummerDesignDay
7,28.580000000000003
2,1, 8,21, 0,18,30.00,45.00,SummerDesignDay
7,28.380000000000004
2,1, 8,21, 0,18,45.00,60.00,SummerDesignDay
7,28.18
2,1, 8,21, 0,18, 0.00,60.00,SummerDesignDay
4438,0.0
2,1, 8,21, 0,19, 0.00,15.00,SummerDesignDay
7,27.880000000000004
2,1, 8,21, 0,19,15.00,30.00,SummerDesignDay
7,27.580000000000003
2,1, 8,21, 0,19,30.00,45.00,SummerDesignDay
7,27.28
2,1, 8,21, 0,19,45.00,60.00,SummerDesignDay
7,26.98
2,1, 8,21, 0,19, 0.00,60.00,SummerDesignDay
4438,0.0
2,1, 8,21, 0,20, 0.00,15.00,SummerDesignDay
7,26.76
2,1, 8,21, 0,20,15.00,30.00,SummerDesignDay
7,26.540000000000004
2,1, 8,21, 0,20,30.00,45.00,SummerDesignDay
7,26.32
2,1, 8,21, 0,20,45.00,60.00,SummerDesignDay
7,26.1
2,1, 8,21, 0,20, 0.00,60.00,SummerDesignDay
4438,0.0
2,1, 8,21, 0,21, 0.00,15.00,SummerDesignDay
7,25.92
2,1, 8,21, 0,21,15.00,30.00,SummerDesignDay
7,25.740000000000003
2,1, 8,21, 0,21,30.00,45.00,SummerDesignDay
7,25.560000000000004
2,1, 8,21, 0,21,45.00,60.00,SummerDesignDay
7,25.380000000000004
2,1, 8,21, 0,21, 0.00,60.00,SummerDesignDay
4438,0.0
2,1, 8,21, 0,22, 0.00,15.00,SummerDesignDay
7,25.200000000000004
2,1, 8,21, 0,22,15.00,30.00,SummerDesignDay
7,25.020000000000004
2,1, 8,21, 0,22,30.00,45.00,SummerDesignDay
7,24.840000000000005
2,1, 8,21, 0,22,45.00,60.00,SummerDesignDay
7,24.66
2,1, 8,21, 0,22, 0.00,60.00,SummerDesignDay
4438,0.0
2,1, 8,21, 0,23, 0.00,15.00,SummerDesignDay
7,24.520000000000004
2,1, 8,21, 0,23,15.00,30.00,SummerDesignDay
7,24.380000000000004
2,1, 8,21, 0,23,30.00,45.00,SummerDesignDay
7,24.240000000000003
2,1, 8,21, 0,23,45.00,60.00,SummerDesignDay
7,24.1
2,1, 8,21, 0,23, 0.00,60.00,SummerDesignDay
4438,0.0
2,1, 8,21, 0,24, 0.00,15.00,SummerDesignDay
7,23.96
2,1, 8,21, 0,24,15.00,30.00,SummerDesignDay
7,23.82
2,1, 8,21, 0,24,30.00,45.00,SummerDesignDay
7,23.68
2,1, 8,21, 0,24,45.00,60.00,SummerDesignDay
7,23.540000000000004
2,1, 8,21, 0,24, 0.00,60.00,SummerDesignDay
4438,0.0
1,BLUE-CANYON-AP JUL CLG 0.4% CONDNS DB=>MCWB,  39.30,-120.72,  -8.00,1609.00
2,1, 7,21, 0, 1, 0.00,15.00,SummerDesignDay
7,24.988
2,1, 7,21, 0, 1,15.00,30.00,SummerDesignDay
7,24.88
2,1, 7,21, 0, 1,30.00,45.00,SummerDesignDay
7,24.772
2,1, 7,21, 0, 1,45.00,60.00,SummerDesignDay
7,24.664
2,1, 7,21, 0, 1, 0.00,60.00,SummerDesignDay
4438,0.0
2,1, 7,21, 0, 2, 0.00,15.00,SummerDesignDay
7,24.592
2,1, 7,21, 0, 2,15.00,30.00,SummerDesignDay
7,24.52
2,1, 7,21, 0, 2,30.00,45.00,SummerDesignDay
7,24.448
2,1, 7,21, 0, 2,45.00,60.00,SummerDesignDay
7,24.375999999999999
2,1, 7,21, 0, 2, 0.00,60.00,SummerDesignDay
4438,0.0
2,1, 7,21, 0, 3, 0.00,15.00,SummerDesignDay
7,24.322
2,1, 7,21, 0, 3,15.00,30.00,SummerDesignDay
7,24.268
2,1, 7,21, 0, 3,30.00,45.00,SummerDesignDay
7,24.214
2,1, 7,21, 0, 3,45.00,60.00,SummerDesignDay
7,24.16
2,1, 7,21, 0, 3, 0.00,60.00,SummerDesignDay
4438,0.0
2,1, 7,21, 0, 4, 0.00,15.00,SummerDesignDay
7,24.106
2,1, 7,21, 0, 4,15.00,30.00,SummerDesignDay
7,24.052
2,1, 7,21, 0, 4,30.00,45.00,SummerDesignDay
7,23.998
2,1, 7,21, 0, 4,45.00,60.00,SummerDesignDay
7,23.944
2,1, 7,21, 0, 4, 0.00,60.00,SummerDesignDay
4438,0.0
2,1, 7,21, 0, 5, 0.00,15.00,SummerDesignDay
7,23.908
2,1, 7,21, 0, 5,15.00,30.00,SummerDesignDay
7,23.872
2,1, 7,21, 0, 5,30.00,45.00,SummerDesignDay
7,23.836
2,1, 7,21, 0, 5,45.00,60.00,SummerDesignDay
7,23.8
2,1, 7,21, 0, 5, 0.00,60.00,SummerDesignDay
4438,0.0
2,1, 7,21, 0, 6, 0.00,15.00,SummerDesignDay
7,23.836
2,1, 7,21, 0, 6,15.00,30.00,SummerDesignDay
7,23.872
2,1, 7,21, 0, 6,30.00,45.00,SummerDesignDay
7,23.908
2,1, 7,21, 0, 6,45.00,60.00,SummerDesignDay
7,23.944
2,1, 7,21, 0, 6, 0.00,60.00,SummerDesignDay
4438,0.0
2,1, 7,21, 0, 7, 0.00,15.00,SummerDesignDay
7,24.07
2,1, 7,21, 0, 7,15.00,30.00,SummerDesignDay
7,24.195999999999999
2,1, 7,21, 0, 7,30.00,45.00,SummerDesignDay
7,24.322
2,1, 7,21, 0, 7,45.00,60.00,SummerDesignDay
7,24.448
2,1, 7,21, 0, 7, 0.00,60.00,SummerDesignDay
4438,0.0
2,1, 7,21, 0, 8, 0.00,15.00,SummerDesignDay
7,24.754
2,1, 7,21, 0, 8,15.00,30.00,SummerDesignDay
7,25.060000000000004
2,1, 7,21, 0, 8,30.00,45.00,SummerDesignDay
7,25.366
2,1, 7,21, 0, 8,45.00,60.00,SummerDesignDay
7,25.672
2,1, 7,21, 0, 8, 0.00,60.00,SummerDesignDay
4438,0.0
2,1, 7,21, 0, 9, 0.00,15.00,SummerDesignDay
7,26.014
2,1, 7,21, 0, 9,15.00,30.00,SummerDesignDay
7,26.356