Program Version,EnergyPlus, Version 9.0.1-bb7ca4f0da, YMD=2019.12.17 17:24
1,5,Environment Title[],Latitude[deg],Longitude[deg],Time Zone[],Elevation[m]
2,8,Day of Simulation[],Month[],Day of Month[],DST Indicator[1=yes 0=no],Hour[],StartMinute[],EndMinute[],DayType
3,5,Cumulative Day of Simulation[],Month[],Day of Month[],DST Indicator[1=yes 0=no],DayType  ! When Daily Report Variables Requested
4,2,Cumulative Days of Simulation[],Month[]  ! When Monthly Report Variables Requested
5,1,Cumulative Days of Simulation[] ! When Run Period Report Variables Requested
6,1,Calendar Year of Simulation[] ! When Annual Report Variables Requested
7,1,Environment,Site Outdoor Air Drybulb Temperature [C] !TimeStep
4438,1,BASE BLR,Boiler Heating Rate [W] !Hourly
End of Data Dictionary
1,SANTA-MARIA-PUBLIC-ARPT ANN CLG 0.4% CONDNS DB=>MCWB,  34.92,-120.47,  -8.00,  77.00
2,1, 8,21, 0, 1, 0.00,15.00,SummerDesignDay
7,20.2995
2,1, 8,21, 0, 1,15.00,30.00,SummerDesignDay
7,20.144999999999997
2,1, 8,21, 0, 1,30.00,45.00,SummerDesignDay
7,19.990499999999999
2,1, 8,21, 0, 1,45.00,60.00,SummerDesignDay
7,19.836
2,1, 8,21, 0, 1, 0.00,60.00,SummerDesignDay
4438,0.0
2,1, 8,21, 0, 2, 0.00,15.00,SummerDesignDay
7,19.732999999999998
2,1, 8,21, 0, 2,15.00,30.00,SummerDesignDay
7,19.629999999999997
2,1, 8,21, 0, 2,30.00,45.00,SummerDesignDay
7,19.526999999999999
2,1, 8,21, 0, 2,45.00,60.00,SummerDesignDay
7,19.424
2,1, 8,21, 0, 2, 0.00,60.00,SummerDesignDay
4438,0.0
2,1, 8,21, 0, 3, 0.00,15.00,SummerDesignDay
7,19.34675
2,1, 8,21, 0, 3,15.00,30.00,SummerDesignDay
7,19.269499999999998
2,1, 8,21, 0, 3,30.00,45.00,SummerDesignDay
7,19.19225
2,1, 8,21, 0, 3,45.00,60.00,SummerDesignDay
7,19.115
2,1, 8,21, 0, 3, 0.00,60.00,SummerDesignDay
4438,0.0
2,1, 8,21, 0, 4, 0.00,15.00,SummerDesignDay
7,19.03775
2,1, 8,21, 0, 4,15.00,30.00,SummerDesignDay
7,18.960499999999997
2,1, 8,21, 0, 4,30.00,45.00,SummerDesignDay
7,18.883249999999998
2,1, 8,21, 0, 4,45.00,60.00,SummerDesignDay
7,18.805999999999999
2,1, 8,21, 0, 4, 0.00,60.00,SummerDesignDay
4438,0.0
2,1, 8,21, 0, 5, 0.00,15.00,SummerDesignDay
7,18.7545
2,1, 8,21, 0, 5,15.00,30.00,SummerDesignDay
7,18.702999999999997
2,1, 8,21, 0, 5,30.00,45.00,SummerDesignDay
7,18.6515
2,1, 8,21, 0, 5,45.00,60.00,SummerDesignDay
7,18.599999999999999
2,1, 8,21, 0, 5, 0.00,60.00,SummerDesignDay
4438,0.0
2,1, 8,21, 0, 6, 0.00,15.00,SummerDesignDay
7,18.6515
2,1, 8,21, 0, 6,15.00,30.00,SummerDesignDay
7,18.702999999999997
2,1, 8,21, 0, 6,30.00,45.00,SummerDesignDay
7,18.7545
2,1, 8,21, 0, 6,45.00,60.00,SummerDesignDay
7,18.805999999999999
2,1, 8,21, 0, 6, 0.00,60.00,SummerDesignDay
4438,0.0
2,1, 8,21, 0, 7, 0.00,15.00,SummerDesignDay
7,18.98625
2,1, 8,21, 0, 7,15.00,30.00,SummerDesignDay
7,19.1665
2,1, 8,21, 0, 7,30.00,45.00,SummerDesignDay
7,19.34675
2,1, 8,21, 0, 7,45.00,60.00,SummerDesignDay
7,19.526999999999999
2,1, 8,21, 0, 7, 0.00,60.00,SummerDesignDay
4438,0.4411983562394955
2,1, 8,21, 0, 8, 0.00,15.00,SummerDesignDay
7,19.96475
2,1, 8,21, 0, 8,15.00,30.00,SummerDesignDay
7,20.402499999999998
2,1, 8,21, 0, 8,30.00,45.00,SummerDesignDay
7,20.840249999999999
2,1, 8,21, 0, 8,45.00,60.00,SummerDesignDay
7,21.278
2,1, 8,21, 0, 8, 0.00,60.00,SummerDesignDay
4438,0.0
2,1, 8,21, 0, 9, 0.00,15.00,SummerDesignDay
7,21.767249999999998
2,1, 8,21, 0, 9,15.00,30.00,SummerDesignDay
7,22.2565
2,1, 8,21, 0, 9,30.00,45.00,SummerDesignDay
7,22.745749999999999
2,1, 8,21, 0, 9,45.00,60.00,SummerDesignDay
7,23.235
2,1, 8,21, 0, 9, 0.00,60.00,SummerDesignDay
4438,0.0
2,1, 8,21, 0,10, 0.00,15.00,SummerDesignDay
7,23.672749999999998
2,1, 8,21, 0,10,15.00,30.00,SummerDesignDay
7,24.1105
2,1, 8,21, 0,10,30.00,45.00,SummerDesignDay
7,24.548249999999997
2,1, 8,21, 0,10,45.00,60.00,SummerDesignDay
7,24.985999999999998
2,1, 8,21, 0,10, 0.00,60.00,SummerDesignDay
4438,0.0
2,1, 8,21, 0,11, 0.00,15.00,SummerDesignDay
7,25.372249999999999
2,1, 8,21, 0,11,15.00,30.00,SummerDesignDay
7,25.758499999999999
2,1, 8,21, 0,11,30.00,45.00,SummerDesignDay
7,26.14475
2,1, 8,21, 0,11,45.00,60.00,SummerDesignDay
7,26.531
2,1, 8,21, 0,11, 0.00,60.00,SummerDesignDay
4438,0.0
2,1, 8,21, 0,12, 0.00,15.00,SummerDesignDay
7,26.7885
2,1, 8,21, 0,12,15.00,30.00,SummerDesignDay
7,27.046
2,1, 8,21, 0,12,30.00,45.00,SummerDesignDay
7,27.3035
2,1, 8,21, 0,12,45.00,60.00,SummerDesignDay
7,27.561
2,1, 8,21, 0,12, 0.00,60.00,SummerDesignDay
4438,0.0
2,1, 8,21, 0,13, 0.00,15.00,SummerDesignDay
7,27.767
2,1, 8,21, 0,13,15.00,30.00,SummerDesignDay
7,27.973
2,1, 8,21, 0,13,30.00,45.00,SummerDesignDay
7,28.179
2,1, 8,21, 0,13,45.00,60.00,SummerDesignDay
7,28.384999999999999
2,1, 8,21, 0,13, 0.00,60.00,SummerDesignDay
4438,0.0
2,1, 8,21, 0,14, 0.00,15.00,SummerDesignDay
7,28.513749999999999
2,1, 8,21, 0,14,15.00,30.00,SummerDesignDay
7,28.6425
2,1, 8,21, 0,14,30.00,45.00,SummerDesignDay
7,28.77125
2,1, 8,21, 0,14,45.00,60.00,SummerDesignDay
7,28.9
2,1, 8,21, 0,14, 0.00,60.00,SummerDesignDay
4438,0.0
2,1, 8,21, 0,15, 0.00,15.00,SummerDesignDay
7,28.9
2,1, 8,21, 0,15,15.00,30.00,SummerDesignDay
7,28.9
2,1, 8,21, 0,15,30.00,45.00,SummerDesignDay
7,28.9
2,1, 8,21, 0,15,45.00,60.00,SummerDesignDay
7,28.9
2,1, 8,21, 0,15, 0.00,60.00,SummerDesignDay
4438,0.0
2,1, 8,21, 0,16, 0.00,15.00,SummerDesignDay
7,28.7455
2,1, 8,21, 0,16,15.00,30.00,SummerDesignDay
7,28.590999999999999
2,1, 8,21, 0,16,30.00,45.00,SummerDesignDay
7,28.4365
2,1, 8,21, 0,16,45.00,60.00,SummerDesignDay
7,28.282
2,1, 8,21, 0,16, 0.00,60.00,SummerDesignDay
4438,0.0
2,1, 8,21, 0,17, 0.00,15.00,SummerDesignDay
7,28.075999999999998
2,1, 8,21, 0,17,15.00,30.00,SummerDesignDay
7,27.869999999999999
2,1, 8,21, 0,17,30.00,45.00,SummerDesignDay
7,27.663999999999999
2,1, 8,21, 0,17,45.00,60.00,SummerDesignDay
7,27.458
2,1, 8,21, 0,17, 0.00,60.00,SummerDesignDay
4438,0.0
2,1, 8,21, 0,18, 0.00,15.00,SummerDesignDay
7,27.200499999999999
2,1, 8,21, 0,18,15.00,30.00,SummerDesignDay
7,26.942999999999999
2,1, 8,21, 0,18,30.00,45.00,SummerDesignDay
7,26.685499999999999
2,1, 8,21, 0,18,45.00,60.00,SummerDesignDay
7,26.427999999999999
2,1, 8,21, 0,18, 0.00,60.00,SummerDesignDay
4438,0.0
2,1, 8,21, 0,19, 0.00,15.00,SummerDesignDay
7,26.04175
2,1, 8,21, 0,19,15.00,30.00,SummerDesignDay
7,25.655499999999998
2,1, 8,21, 0,19,30.00,45.00,SummerDesignDay
7,25.26925
2,1, 8,21, 0,19,45.00,60.00,SummerDesignDay
7,24.883
2,1, 8,21, 0,19, 0.00,60.00,SummerDesignDay
4438,0.3833261685671161
2,1, 8,21, 0,20, 0.00,15.00,SummerDesignDay
7,24.59975
2,1, 8,21, 0,20,15.00,30.00,SummerDesignDay
7,24.316499999999999
2,1, 8,21, 0,20,30.00,45.00,SummerDesignDay
7,24.03325
2,1, 8,21, 0,20,45.00,60.00,SummerDesignDay
7,23.75
2,1, 8,21, 0,20, 0.00,60.00,SummerDesignDay
4438,6.454529007776666
2,1, 8,21, 0,21, 0.00,15.00,SummerDesignDay
7,23.51825
2,1, 8,21, 0,21,15.00,30.00,SummerDesignDay
7,23.2865
2,1, 8,21, 0,21,30.00,45.00,SummerDesignDay
7,23.05475
2,1, 8,21, 0,21,45.00,60.00,SummerDesignDay
7,22.823
2,1, 8,21, 0,21, 0.00,60.00,SummerDesignDay
4438,13.199729904074579
2,1, 8,21, 0,22, 0.00,15.00,SummerDesignDay
7,22.59125
2,1, 8,21, 0,22,15.00,30.00,SummerDesignDay
7,22.359499999999998
2,1, 8,21, 0,22,30.00,45.00,SummerDesignDay
7,22.12775
2,1, 8,21, 0,22,45.00,60.00,SummerDesignDay
7,21.895999999999999
2,1, 8,21, 0,22, 0.00,60.00,SummerDesignDay
4438,0.0
2,1, 8,21, 0,23, 0.00,15.00,SummerDesignDay
7,21.71575
2,1, 8,21, 0,23,15.00,30.00,SummerDesignDay
7,21.5355
2,1, 8,21, 0,23,30.00,45.00,SummerDesignDay
7,21.355249999999999
2,1, 8,21, 0,23,45.00,60.00,SummerDesignDay
7,21.174999999999998
2,1, 8,21, 0,23, 0.00,60.00,SummerDesignDay
4438,0.0
2,1, 8,21, 0,24, 0.00,15.00,SummerDesignDay
7,20.994749999999998
2,1, 8,21, 0,24,15.00,30.00,SummerDesignDay
7,20.8145
2,1, 8,21, 0,24,30.00,45.00,SummerDesignDay
7,20.634249999999999
2,1, 8,21, 0,24,45.00,60.00,SummerDesignDay
7,20.454
2,1, 8,21, 0,24, 0.00,60.00,SummerDesignDay
4438,0.0
1,SANTA-MARIA-PUBLIC-ARPT ANN CLG 0.4% CONDNS DP=>MCDB,  34.92,-120.47,  -8.00,  77.00
2,1, 8,21, 0, 1, 0.00,15.00,SummerDesignDay
7,12.299499999999999
2,1, 8,21, 0, 1,15.00,30.00,SummerDesignDay
7,12.144999999999998
2,1, 8,21, 0, 1,30.00,45.00,SummerDesignDay
7,11.990499999999998
2,1, 8,21, 0, 1,45.00,60.00,SummerDesignDay
7,11.835999999999999
2,1, 8,21, 0, 1, 0.00,60.00,SummerDesignDay
4438,2661.059897862523
2,1, 8,21, 0, 2, 0.00,15.00,SummerDesignDay
7,11.732999999999997
2,1, 8,21, 0, 2,15.00,30.00,SummerDesignDay
7,11.629999999999998
2,1, 8,21, 0, 2,30.00,45.00,SummerDesignDay
7,11.526999999999998
2,1, 8,21, 0, 2,45.00,60.00,SummerDesignDay
7,11.423999999999998
2,1, 8,21, 0, 2, 0.00,60.00,SummerDesignDay
4438,4909.3636793505079
2,1, 8,21, 0, 3, 0.00,15.00,SummerDesignDay
7,11.346749999999999
2,1, 8,21, 0, 3,15.00,30.00,SummerDesignDay
7,11.269499999999998
2,1, 8,21, 0, 3,30.00,45.00,SummerDesignDay
7,11.19225
2,1, 8,21, 0, 3,45.00,60.00,SummerDesignDay
7,11.114999999999999
2,1, 8,21, 0, 3, 0.00,60.00,SummerDesignDay
4438,6329.682532542396
2,1, 8,21, 0, 4, 0.00,15.00,SummerDesignDay
7,11.037749999999999
2,1, 8,21, 0, 4,15.00,30.00,SummerDesignDay
7,10.960499999999998
2,1, 8,21, 0, 4,30.00,45.00,SummerDesignDay
7,10.883249999999999
2,1, 8,21, 0, 4,45.00,60.00,SummerDesignDay
7,10.805999999999998
2,1, 8,21, 0, 4, 0.00,60.00,SummerDesignDay
4438,7756.560888735616
2,1, 8,21, 0, 5, 0.00,15.00,SummerDesignDay
7,10.754499999999999
2,1, 8,21, 0, 5,15.00,30.00,SummerDesignDay
7,10.702999999999998
2,1, 8,21, 0, 5,30.00,45.00,SummerDesignDay
7,10.651499999999999
2,1, 8,21, 0, 5,45.00,60.00,SummerDesignDay
7,10.599999999999998
2,1, 8,21, 0, 5, 0.00,60.00,SummerDesignDay
4438,8831.89758803769
2,1, 8,21, 0, 6, 0.00,15.00,SummerDesignDay
7,10.651499999999999
2,1, 8,21, 0, 6,15.00,30.00,SummerDesignDay
7,10.702999999999998
2,1, 8,21, 0, 6,30.00,45.00,SummerDesignDay
7,10.754499999999999
2,1, 8,21, 0, 6,45.00,60.00,SummerDesignDay
7,10.805999999999998
2,1, 8,21, 0, 6, 0.00,60.00,SummerDesignDay
4438,6903.715365354151
2,1, 8,21, 0, 7, 0.00,15.00,SummerDesignDay
7,10.986249999999999
2,1, 8,21, 0, 7,15.00,30.00,SummerDesignDay
7,11.166499999999998
2,1, 8,21, 0, 7,30.00,45.00,SummerDesignDay
7,11.346749999999999
2,1, 8,21, 0, 7,45.00,60.00,SummerDesignDay
7,11.526999999999998
2,1, 8,21, 0, 7, 0.00,60.00,SummerDesignDay
4438,648.1078525624349
2,1, 8,21, 0, 8, 0.00,15.00,SummerDesignDay
7,11.964749999999999
2,1, 8,21, 0, 8,15.00,30.00,SummerDesignDay
7,12.402499999999998
2,1, 8,21, 0, 8,30.00,45.00,SummerDesignDay
7,12.840249999999998
2,1, 8,21, 0, 8,45.00,60.00,SummerDesignDay
7,13.277999999999999
2,1, 8,21, 0, 8, 0.00,60.00,SummerDesignDay
4438,117.64214881191522
2,1, 8,21, 0, 9, 0.00,15.00,SummerDesignDay
7,13.767249999999999
2,1, 8,21, 0, 9,15.00,30.00,SummerDesignDay
7,14.256499999999999
2,1, 8,21, 0, 9,30.00,45.00,SummerDesignDay
7,14.745749999999998
2,1, 8,21, 0, 9,45.00,60.00,SummerDesignDay
7,15.234999999999998
2,1, 8,21, 0, 9, 0.00,60.00,SummerDesignDay
4438,5.144793768647262
2,1, 8,21, 0,10, 0.00,15.00,SummerDesignDay
7,15.672749999999997
2,1, 8,21, 0,10,15.00,30.00,SummerDesignDay
7,16.1105
2,1, 8,21, 0,10,30.00,45.00,SummerDesignDay
7,16.548249999999997
2,1, 8,21, 0,10,45.00,60.00,SummerDesignDay
7,16.985999999999998
2,1, 8,21, 0,10, 0.00,60.00,SummerDesignDay
4438,0.0
2,1, 8,21, 0,11, 0.00,15.00,SummerDesignDay
7,17.372249999999999
2,1, 8,21, 0,11,15.00,30.00,SummerDesignDay
7,17.758499999999999
2,1, 8,21, 0,11,30.00,45.00,SummerDesignDay
7,18.14475
2,1, 8,21, 0,11,45.00,60.00,SummerDesignDay
7,18.531
2,1, 8,21, 0,11, 0.00,60.00,SummerDesignDay
4438,23.806201902545433
2,1, 8,21, 0,12, 0.00,15.00,SummerDesignDay
7,18.7885
2,1, 8,21, 0,12,15.00,30.00,SummerDesignDay
7,19.046
2,1, 8,21, 0,12,30.00,45.00,SummerDesignDay
7,19.3035
2,1, 8,21, 0,12,45.00,60.00,SummerDesignDay
7,19.561
2,1, 8,21, 0,12, 0.00,60.00,SummerDesignDay
4438,103.78547516310806
2,1, 8,21, 0,13, 0.00,15.00,SummerDesignDay
7,19.767
2,1, 8,21, 0,13,15.00,30.00,SummerDesignDay
7,19.973
2,1, 8,21, 0,13,30.00,45.00,SummerDesignDay
7,20.179
2,1, 8,21, 0,13,45.00,60.00,SummerDesignDay
7,20.384999999999999
2,1, 8,21, 0,13, 0.00,60.00,SummerDesignDay
4438,149.3757117587274
2,1, 8,21, 0,14, 0.00,15.00,SummerDesignDay
7,20.513749999999999
2,1, 8,21, 0,14,15.00,30.00,SummerDesignDay
7,20.6425
2,1, 8,21, 0,14,30.00,45.00,SummerDesignDay
7,20.77125
2,1, 8,21, 0,14,45.00,60.00,SummerDesignDay
7,20.9
2,1, 8,21, 0,14, 0.00,60.00,SummerDesignDay
4438,175.3493525849894
2,1, 8,21, 0,15, 0.00,15.00,SummerDesignDay
7,20.9
2,1, 8,21, 0,15,15.00,30.00,SummerDesignDay
7,20.9
2,1, 8,21, 0,15,30.00,45.00,SummerDesignDay
7,20.9
2,1, 8,21, 0,15,45.00,60.00,SummerDesignDay
7,20.9
2,1, 8,21, 0,15, 0.00,60.00,SummerDesignDay
4438,186.54431352659058
2,1, 8,21, 0,16, 0.00,15.00,SummerDesignDay
7,20.7455
2,1, 8,21, 0,16,15.00,30.00,SummerDesignDay
7,20.590999999999999
2,1, 8,21, 0,16,30.00,45.00,SummerDesignDay
7,20.4365
2,1, 8,21, 0,16,45.00,60.00,SummerDesignDay
7,20.282
2,1, 8,21, 0,16, 0.00,60.00,SummerDesignDay
4438,196.98961590119425
2,1, 8,21, 0,17, 0.00,15.00,SummerDesignDay
7,20.075999999999998
2,1, 8,21, 0,17,15.00,30.00,SummerDesignDay
7,19.869999999999999
2,1, 8,21, 0,17,30.00,45.00,SummerDesignDay
7,19.663999999999999
2,1, 8,21, 0,17,45.00,60.00,SummerDesignDay
7,19.458
2,1, 8,21, 0,17, 0.00,60.00,SummerDesignDay
4438,216.21569941170444
2,1, 8,21, 0,18, 0.00,15.00,SummerDesignDay
7,19.200499999999999
2,1, 8,21, 0,18,15.00,30.00,SummerDesignDay
7,18.942999999999999
2,1, 8,21, 0,18,30.00,45.00,SummerDesignDay
7,18.685499999999999
2,1, 8,21, 0,18,45.00,60.00,SummerDesignDay
7,18.427999999999999
2,1, 8,21, 0,18, 0.00,60.00,SummerDesignDay
4438,245.36224080509369
2,1, 8,21, 0,19, 0.00,15.00,SummerDesignDay
7,18.04175
2,1, 8,21, 0,19,15.00,30.00,SummerDesignDay
7,17.655499999999998
2,1, 8,21, 0,19,30.00,45.00,SummerDesignDay
7,17.26925
2,1, 8,21, 0,19,45.00,60.00,SummerDesignDay
7,16.883
2,1, 8,21, 0,19, 0.00,60.00,SummerDesignDay
4438,289.9591791405096
2,1, 8,21, 0,20, 0.00,15.00,SummerDesignDay
7,16.59975
2,1, 8,21, 0,20,15.00,30.00,SummerDesignDay
7,16.316499999999999
2,1, 8,21, 0,20,30.00,45.00,SummerDesignDay
7,16.03325
2,1, 8,21, 0,20,45.00,60.00,SummerDesignDay
7,15.749999999999999
2,1, 8,21, 0,20, 0.00,60.00,SummerDesignDay
4438,336.45835531208118
2,1, 8,21, 0,21, 0.00,15.00,SummerDesignDay
7,15.518249999999999
2,1, 8,21, 0,21,15.00,30.00,SummerDesignDay
7,15.2865
2,1, 8,21, 0,21,30.00,45.00,SummerDesignDay
7,15.054749999999999
2,1, 8,21, 0,21,45.00,60.00,SummerDesignDay
7,14.822999999999999
2,1, 8,21, 0,21, 0.00,60.00,SummerDesignDay
4438,375.1555868717678
2,1, 8,21, 0,22, 0.00,15.00,SummerDesignDay
7,14.591249999999999
2,1, 8,21, 0,22,15.00,30.00,SummerDesignDay
7,14.359499999999997
2,1, 8,21, 0,22,30.00,45.00,SummerDesignDay
7,14.127749999999999
2,1, 8,21, 0,22,45.00,60.00,SummerDesignDay
7,13.895999999999998
2,1, 8,21, 0,22, 0.00,60.00,SummerDesignDay
4438,0.0
2,1, 8,21, 0,23, 0.00,15.00,SummerDesignDay
7,13.715749999999998
2,1, 8,21, 0,23,15.00,30.00,SummerDesignDay
7,13.535499999999998
2,1, 8,21, 0,23,30.00,45.00,SummerDesignDay
7,13.355249999999998
2,1, 8,21, 0,23,45.00,60.00,SummerDesignDay
7,13.174999999999998
2,1, 8,21, 0,23, 0.00,60.00,SummerDesignDay
4438,0.0
2,1, 8,21, 0,24, 0.00,15.00,SummerDesignDay
7,12.994749999999998
2,1, 8,21, 0,24,15.00,30.00,SummerDesignDay
7,12.814499999999999
2,1, 8,21, 0,24,30.00,45.00,SummerDesignDay
7,12.634249999999998
2,1, 8,21, 0,24,45.00,60.00,SummerDesignDay
7,12.453999999999999
2,1, 8,21, 0,24, 0.00,60.00,SummerDesignDay
4438,183.97503996453762
1,SANTA-MARIA-PUBLIC-ARPT ANN HTG 99.6% CONDNS DB,  34.92,-120.47,  -8.00,  77.00
2,1, 1,21, 0, 1, 0.00,15.00,WinterDesignDay
7,0.8
2,1, 1,21, 0, 1,15.00,30.00,WinterDesignDay
7,0.8
2,1, 1,21, 0, 1,30.00,45.00,WinterDesignDay
7,0.8
2,1, 1,21, 0, 1,45.00,60.00,WinterDesignDay
7,0.8
2,1, 1,21, 0, 1, 0.00,60.00,WinterDesignDay
4438,63660.13999793707
2,1, 1,21, 0, 2, 0.00,15.00,WinterDesignDay
7,0.8
2,1, 1,21, 0, 2,15.00,30.00,WinterDesignDay
7,0.8
2,1, 1,21, 0, 2,30.00,45.00,WinterDesignDay
7,0.8
2,1, 1,21, 0, 2,45.00,60.00,WinterDesignDay
7,0.8
2,1, 1,21, 0, 2, 0.00,60.00,WinterDesignDay
4438,65929.38374398515
2,1, 1,21, 0, 3, 0.00,15.00,WinterDesignDay
7,0.8
2,1, 1,21, 0, 3,15.00,30.00,WinterDesignDay
7,0.8
2,1, 1,21, 0, 3,30.00,45.00,WinterDesignDay
7,0.8
2,1, 1,21, 0, 3,45.00,60.00,WinterDesignDay
7,0.8
2,1, 1,21, 0, 3, 0.00,60.00,WinterDesignDay
4438,68183.28828488631
2,1, 1,21, 0, 4, 0.00,15.00,WinterDesignDay
7,0.8
2,1, 1,21, 0, 4,15.00,30.00,WinterDesignDay
7,0.8
2,1, 1,21, 0, 4,30.00,45.00,WinterDesignDay
7,0.8
2,1, 1,21, 0, 4,45.00,60.00,WinterDesignDay
7,0.8
2,1, 1,21, 0, 4, 0.00,60.00,WinterDesignDay
4438,72008.62455486681
2,1, 1,21, 0, 5, 0.00,15.00,WinterDesignDay
7,0.8
2,1, 1,21, 0, 5,15.00,30.00,WinterDesignDay
7,0.8
2,1, 1,21, 0, 5,30.00,45.00,WinterDesignDay
7,0.8
2,1, 1,21, 0, 5,45.00,60.00,WinterDesignDay
7,0.8
2,1, 1,21, 0, 5, 0.00,60.00,WinterDesignDay
4438,75350.07545548829
2,1, 1,21, 0, 6, 0.00,15.00,WinterDesignDay
7,0.8
2,1, 1,21, 0, 6,15.00,30.00,WinterDesignDay
7,0.8
2,1, 1,21, 0, 6,30.00,45.00,WinterDesignDay
7,0.8
2,1, 1,21, 0, 6,45.00,60.00,WinterDesignDay
7,0.8
2,1, 1,21, 0, 6, 0.00,60.00,WinterDesignDay
4438,119841.45757674266
2,1, 1,21, 0, 7, 0.00,15.00,WinterDesignDay
7,0.8
2,1, 1,21, 0, 7,15.00,30.00,WinterDesignDay
7,0.8
2,1, 1,21, 0, 7,30.00,45.00,WinterDesignDay
7,0.8
2,1, 1,21, 0, 7,45.00,60.00,WinterDesignDay
7,0.8
2,1, 1,21, 0, 7, 0.00,60.00,WinterDesignDay
4438,186502.51960162528
2,1, 1,21, 0, 8, 0.00,15.00,WinterDesignDay
7,0.8
2,1, 1,21, 0, 8,15.00,30.00,WinterDesignDay
7,0.8
2,1, 1,21, 0, 8,30.00,45.00,WinterDesignDay
7,0.8
2,1, 1,21, 0, 8,45.00,60.00,WinterDesignDay
7,0.8
2,1, 1,21, 0, 8, 0.00,60.00,WinterDesignDay
4438,145563.13487957623
2,1, 1,21, 0, 9, 0.00,15.00,WinterDesignDay
7,0.8
2,1, 1,21, 0, 9,15.00,30.00,WinterDesignDay
7,0.8
2,1, 1,21, 0, 9,30.00,45.00,WinterDesignDay
7,0.8
2,1, 1,21, 0, 9,45.00,60.00,WinterDesignDay
7,0.8
2,1, 1,21, 0, 9, 0.00,60.00,WinterDesignDay
4438,133319.85453698116
2,1, 1,21, 0,10, 0.00,15.00,WinterDesignDay
7,0.8
2,1, 1,21, 0,10,15.00,30.00,WinterDesignDay
7,0.8
2,1, 1,21, 0,10,30.00,45.00,WinterDesignDay
7,0.8
2,1, 1,21, 0,10,45.00,60.00,WinterDesignDay
7,0.8
2,1, 1,21, 0,10, 0.00,60.00,WinterDesignDay
4438,127331.23340588453
2,1, 1,21, 0,11, 0.00,15.00,WinterDesignDay
7,0.8
2,1, 1,21, 0,11,15.00,30.00,WinterDesignDay
7,0.8
2,1, 1,21, 0,11,30.00,45.00,WinterDesignDay
7,0.8
2,1, 1,21, 0,11,45.00,60.00,WinterDesignDay
7,0.8
2,1, 1,21, 0,11, 0.00,60.00,WinterDesignDay
4438,123897.74606236397
2,1, 1,21, 0,12, 0.00,15.00,WinterDesignDay
7,0.8
2,1, 1,21, 0,12,15.00,30.00,WinterDesignDay
7,0.8
2,1, 1,21, 0,12,30.00,45.00,WinterDesignDay
7,0.8
2,1, 1,21, 0,12,45.00,60.00,WinterDesignDay
7,0.8
2,1, 1,21, 0,12, 0.00,60.00,WinterDesignDay
4438,121696.4569098273
2,1, 1,21, 0,13, 0.00,15.00,WinterDesignDay
7,0.8
2,1, 1,21, 0,13,15.00,30.00,WinterDesignDay
7,0.8
2,1, 1,21, 0,13,30.00,45.00,WinterDesignDay
7,0.8
2,1, 1,21, 0,13,45.00,60.00,WinterDesignDay
7,0.8
2,1, 1,21, 0,13, 0.00,60.00,WinterDesignDay
4438,120195.00524529364
2,1, 1,21, 0,14, 0.00,15.00,WinterDesignDay
7,0.8
2,1, 1,21, 0,14,15.00,30.00,WinterDesignDay
7,0.8
2,1, 1,21, 0,14,30.00,45.00,WinterDesignDay
7,0.8
2,1, 1,21, 0,14,45.00,60.00,WinterDesignDay
7,0.8
2,1, 1,21, 0,14, 0.00,60.00,WinterDesignDay
4438,119118.4368164588
2,1, 1,21, 0,15, 0.00,15.00,WinterDesignDay
7,0.8
2,1, 1,21, 0,15,15.00,30.00,WinterDesignDay
7,0.8
2,1, 1,21, 0,15,30.00,45.00,WinterDesignDay
7,0.8
2,1, 1,21, 0,15,45.00,60.00,WinterDesignDay
7,0.8
2,1, 1,21, 0,15, 0.00,60.00,WinterDesignDay
4438,118400.07521920817
2,1, 1,21, 0,16, 0.00,15.00,WinterDesignDay
7,0.8
2,1, 1,21, 0,16,15.00,30.00,WinterDesignDay
7,0.8
2,1, 1,21, 0,16,30.00,45.00,WinterDesignDay
7,0.8
2,1, 1,21, 0,16,45.00,60.00,WinterDesignDay
7,0.8
2,1, 1,21, 0,16, 0.00,60.00,WinterDesignDay
4438,117856.66610744651
2,1, 1,21, 0,17, 0.00,15.00,WinterDesignDay
7,0.8
2,1, 1,21, 0,17,15.00,30.00,WinterDesignDay
7,0.8
2,1, 1,21, 0,17,30.00,45.00,WinterDesignDay
7,0.8
2,1, 1,21, 0,17,45.00,60.00,WinterDesignDay
7,0.8
2,1, 1,21, 0,17, 0.00,60.00,WinterDesignDay
4438,117449.92347843226
2,1, 1,21, 0,18, 0.00,15.00,WinterDesignDay
7,0.8
2,1, 1,21, 0,18,15.00,30.00,WinterDesignDay
7,0.8
2,1, 1,21, 0,18,30.00,45.00,WinterDesignDay
7,0.8
2,1, 1,21, 0,18,45.00,60.00,WinterDesignDay
7,0.8
2,1, 1,21, 0,18, 0.00,60.00,WinterDesignDay
4438,117179.24581286989
2,1, 1,21, 0,19, 0.00,15.00,WinterDesignDay
7,0.8
2,1, 1,21, 0,19,15.00,30.00,WinterDesignDay
7,0.8
2,1, 1,21, 0,19,30.00,45.00,WinterDesignDay
7,0.8
2,1, 1,21, 0,19,45.00,60.00,WinterDesignDay
7,0.8
2,1, 1,21, 0,19, 0.00,60.00,WinterDesignDay
4438,116977.69978302709
2,1, 1,21, 0,20, 0.00,15.00,WinterDesignDay
7,0.8
2,1, 1,21, 0,20,15.00,30.00,WinterDesignDay
7,0.8
2,1, 1,21, 0,20,30.00,45.00,WinterDesignDay
7,0.8
2,1, 1,21, 0,20,45.00,60.00,WinterDesignDay
7,0.8
2,1, 1,21, 0,20, 0.00,60.00,WinterDesignDay
4438,116825.0127141951
2,1, 1,21, 0,21, 0.00,15.00,WinterDesignDay
7,0.8
2,1, 1,21, 0,21,15.00,30.00,WinterDesignDay
7,0.8
2,1, 1,21, 0,21,30.00,45.00,WinterDesignDay
7,0.8
2,1, 1,21, 0,21,45.00,60.00,WinterDesignDay
7,0.8
2,1, 1,21, 0,21, 0.00,60.00,WinterDesignDay
4438,116710.41023465448
2,1, 1,21, 0,22, 0.00,15.00,WinterDesignDay
7,0.8
2,1, 1,21, 0,22,15.00,30.00,WinterDesignDay
7,0.8
2,1, 1,21, 0,22,30.00,45.00,WinterDesignDay
7,0.8
2,1, 1,21, 0,22,45.00,60.00,WinterDesignDay
7,0.8
2,1, 1,21, 0,22, 0.00,60.00,WinterDesignDay
4438,68374.79675869752
2,1, 1,21, 0,23, 0.00,15.00,WinterDesignDay
7,0.8
2,1, 1,21, 0,23,15.00,30.00,WinterDesignDay
7,0.8
2,1, 1,21, 0,23,30.00,45.00,WinterDesignDay
7,0.8
2,1, 1,21, 0,23,45.00,60.00,WinterDesignDay
7,0.8
2,1, 1,21, 0,23, 0.00,60.00,WinterDesignDay
4438,74559.51210988555
2,1, 1,21, 0,24, 0.00,15.00,WinterDesignDay
7,0.8
2,1, 1,21, 0,24,15.00,30.00,WinterDesignDay
7,0.8
2,1, 1,21, 0,24,30.00,45.00,WinterDesignDay
7,0.8
2,1, 1,21, 0,24,45.00,60.00,WinterDesignDay
7,0.8
2,1, 1,21, 0,24, 0.00,60.00,WinterDesignDay
4438,82559.73197412165
1,SANTA-MARIA-PUBLIC-ARPT AUG CLG 0.4% CONDNS DB=>MCWB,  34.92,-120.47,  -8.00,  77.00
2,1, 8,21, 0, 1, 0.00,15.00,SummerDesignDay
7,18.2995
2,1, 8,21, 0, 1,15.00,30.00,SummerDesignDay
7,18.144999999999997
2,1, 8,21, 0, 1,30.00,45.00,SummerDesignDay
7,17.990499999999999
2,1, 8,21, 0, 1,45.00,60.00,SummerDesignDay
7,17.836
2,1, 8,21, 0, 1, 0.00,60.00,SummerDesignDay
4438,0.0
2,1, 8,21, 0, 2, 0.00,15.00,SummerDesignDay
7,17.732999999999998
2,1, 8,21, 0, 2,15.00,30.00,SummerDesignDay
7,17.629999999999997
2,1, 8,21, 0, 2,30.00,45.00,SummerDesignDay
7,17.526999999999999
2,1, 8,21, 0, 2,45.00,60.00,SummerDesignDay
7,17.424
2,1, 8,21, 0, 2, 0.00,60.00,SummerDesignDay
4438,0.0
2,1, 8,21, 0, 3, 0.00,15.00,SummerDesignDay
7,17.34675
2,1, 8,21, 0, 3,15.00,30.00,SummerDesignDay
7,17.269499999999998
2,1, 8,21, 0, 3,30.00,45.00,SummerDesignDay
7,17.19225
2,1, 8,21, 0, 3,45.00,60.00,SummerDesignDay
7,17.115
2,1, 8,21, 0, 3, 0.00,60.00,SummerDesignDay
4438,0.0
2,1, 8,21, 0, 4, 0.00,15.00,SummerDesignDay
7,17.03775
2,1, 8,21, 0, 4,15.00,30.00,SummerDesignDay
7,16.960499999999997
2,1, 8,21, 0, 4,30.00,45.00,SummerDesignDay
7,16.883249999999998
2,1, 8,21, 0, 4,45.00,60.00,SummerDesignDay
7,16.805999999999999
2,1, 8,21, 0, 4, 0.00,60.00,SummerDesignDay
4438,0.0
2,1, 8,21, 0, 5, 0.00,15.00,SummerDesignDay
7,16.7545
2,1, 8,21, 0, 5,15.00,30.00,SummerDesignDay
7,16.702999999999997
2,1, 8,21, 0, 5,30.00,45.00,SummerDesignDay
7,16.6515
2,1, 8,21, 0, 5,45.00,60.00,SummerDesignDay
7,16.599999999999999
2,1, 8,21, 0, 5, 0.00,60.00,SummerDesignDay
4438,0.0
2,1, 8,21, 0, 6, 0.00,15.00,SummerDesignDay
7,16.6515
2,1, 8,21, 0, 6,15.00,30.00,SummerDesignDay
7,16.702999999999997
2,1, 8,21, 0, 6,30.00,45.00,SummerDesignDay
7,16.7545
2,1, 8,21, 0, 6,45.00,60.00,SummerDesignDay
7,16.805999999999999
2,1, 8,21, 0, 6, 0.00,60.00,SummerDesignDay
4438,0.0
2,1, 8,21, 0, 7, 0.00,15.00,SummerDesignDay
7,16.98625
2,1, 8,21, 0, 7,15.00,30.00,SummerDesignDay
7,17.1665
2,1, 8,21, 0, 7,30.00,45.00,SummerDesignDay
7,17.34675
2,1, 8,21, 0, 7,45.00,60.00,SummerDesignDay
7,17.526999999999999
2,1, 8,21, 0, 7, 0.00,60.00,SummerDesignDay
4438,26.199055012279719
2,1, 8,21, 0, 8, 0.00,15.00,SummerDesignDay
7,17.96475
2,1, 8,21, 0, 8,15.00,30.00,SummerDesignDay
7,18.402499999999998
2,1, 8,21, 0, 8,30.00,45.00,SummerDesignDay
7,18.840249999999999
2,1, 8,21, 0, 8,45.00,60.00,SummerDesignDay
7,19.278
2,1, 8,21, 0, 8, 0.00,60.00,SummerDesignDay
4438,0.0
2,1, 8,21, 0, 9, 0.00,15.00,SummerDesignDay
7,19.767249999999998
2,1, 8,21, 0, 9,15.00,30.00,SummerDesignDay
7,20.2565
2,1, 8,21, 0, 9,30.00,45.00,SummerDesignDay
7,20.745749999999999
2,1, 8,21, 0, 9,45.00,60.00,SummerDesignDay
7,21.235
2,1, 8,21, 0, 9, 0.00,60.00,SummerDesignDay
4438,0.0
2,1, 8,21, 0,10, 0.00,15.00,SummerDesignDay
7,21.672749999999998
2,1, 8,21, 0,10,15.00,30.00,SummerDesignDay
7,22.1105
2,1, 8,21, 0,10,30.00,45.00,SummerDesignDay
7,22.548249999999997
2,1, 8,21, 0,10,45.00,60.00,SummerDesignDay
7,22.985999999999998
2,1, 8,21, 0,10, 0.00,60.00,SummerDesignDay
4438,0.0
2,1, 8,21, 0,11, 0.00,15.00,SummerDesignDay
7,23.372249999999999
2,1, 8,21, 0,11,15.00,30.00,SummerDesignDay
7,23.758499999999999
2,1, 8,21, 0,11,30.00,45.00,SummerDesignDay
7,24.14475
2,1, 8,21, 0,11,45.00,60.00,SummerDesignDay
7,24.531
2,1, 8,21, 0,11, 0.00,60.00,SummerDesignDay
4438,0.0
2,1, 8,21, 0,12, 0.00,15.00,SummerDesignDay
7,24.7885
2,1, 8,21, 0,12,15.00,30.00,SummerDesignDay
7,25.046
2,1, 8,21, 0,12,30.00,45.00,SummerDesignDay
7,25.3035
2,1, 8,21, 0,12,45.00,60.00,SummerDesignDay
7,25.561
2,1, 8,21, 0,12, 0.00,60.00,SummerDesignDay
4438,0.0
2,1, 8,21, 0,13, 0.00,15.00,SummerDesignDay
7,25.767
2,1, 8,21, 0,13,15.00,30.00,SummerDesignDay
7,25.973
2,1, 8,21, 0,13,30.00,45.00,SummerDesignDay
7,26.179
2,1, 8,21, 0,13,45.00,60.00,SummerDesignDay
7,26.384999999999999
2,1, 8,21, 0,13, 0.00,60.00,SummerDesignDay
4438,0.0
2,1, 8,21, 0,14, 0.00,15.00,SummerDesignDay
7,26.513749999999999
2,1, 8,21, 0,14,15.00,30.00,SummerDesignDay
7,26.6425
2,1, 8,21, 0,14,30.00,45.00,SummerDesignDay
7,26.77125
2,1, 8,21, 0,14,45.00,60.00,SummerDesignDay
7,26.9
2,1, 8,21, 0,14, 0.00,60.00,SummerDesignDay
4438,0.0
2,1, 8,21, 0,15, 0.00,15.00,SummerDesignDay
7,26.9
2,1, 8,21, 0,15,15.00,30.00,SummerDesignDay
7,26.9
2,1, 8,21, 0,15,30.00,45.00,SummerDesignDay
7,26.9
2,1, 8,21, 0,15,45.00,60.00,SummerDesignDay
7,26.9
2,1, 8,21, 0,15, 0.00,60.00,SummerDesignDay
4438,0.0
2,1, 8,21, 0,16, 0.00,15.00,SummerDesignDay
7,26.7455
2,1, 8,21, 0,16,15.00,30.00,SummerDesignDay
7,26.590999999999999
2,1, 8,21, 0,16,30.00,45.00,SummerDesignDay
7,26.4365
2,1, 8,21, 0,16,45.00,60.00,SummerDesignDay
7,26.282
2,1, 8,21, 0,16, 0.00,60.00,SummerDesignDay
4438,0.0
2,1, 8,21, 0,17, 0.00,15.00,SummerDesignDay
7,26.075999999999998
2,1, 8,21, 0,17,15.00,30.00,SummerDesignDay
7,25.869999999999999
2,1, 8,21, 0,17,30.00,45.00,SummerDesignDay
7,25.663999999999999
2,1, 8,21, 0,17,45.00,60.00,SummerDesignDay
7,25.458
2,1, 8,21, 0,17, 0.00,60.00,SummerDesignDay
4438,0.8979602461190396
2,1, 8,21, 0,18, 0.00,15.00,SummerDesignDay
7,25.200499999999999
2,1, 8,21, 0,18,15.00,30.00,SummerDesignDay
7,24.942999999999999
2,1, 8,21, 0,18,30.00,45.00,SummerDesignDay
7,24.685499999999999
2,1, 8,21, 0,18,45.00,60.00,SummerDesignDay
7,24.427999999999999
2,1, 8,21, 0,18, 0.00,60.00,SummerDesignDay
4438,11.287154831654718
2,1, 8,21, 0,19, 0.00,15.00,SummerDesignDay
7,24.04175
2,1, 8,21, 0,19,15.00,30.00,SummerDesignDay
7,23.655499999999998
2,1, 8,21, 0,19,30.00,45.00,SummerDesignDay
7,23.26925
2,1, 8,21, 0,19,45.00,60.00,SummerDesignDay
7,22.883
2,1, 8,21, 0,19, 0.00,60.00,SummerDesignDay
4438,27.445788627558227
2,1, 8,21, 0,20, 0.00,15.00,SummerDesignDay
7,22.59975
2,1, 8,21, 0,20,15.00,30.00,SummerDesignDay
7,22.316499999999999
2,1, 8,21, 0,20,30.00,45.00,SummerDesignDay
7,22.03325
2,1, 8,21, 0,20,45.00,60.00,SummerDesignDay
7,21.75
2,1, 8,21, 0,20, 0.00,60.00,SummerDesignDay
4438,44.03147691986913
2,1, 8,21, 0,21, 0.00,15.00,SummerDesignDay
7,21.51825
2,1, 8,21, 0,21,15.00,30.00,SummerDesignDay
7,21.2865
2,1, 8,21, 0,21,30.00,45.00,SummerDesignDay
7,21.05475
2,1, 8,21, 0,21,45.00,60.00,SummerDesignDay
7,20.823
2,1, 8,21, 0,21, 0.00,60.00,SummerDesignDay
4438,58.81282815450298
2,1, 8,21, 0,22, 0.00,15.00,SummerDesignDay
7,20.59125
2,1, 8,21, 0,22,15.00,30.00,SummerDesignDay
7,20.359499999999998
2,1, 8,21, 0,22,30.00,45.00,SummerDesignDay
7,20.12775
2,1, 8,21, 0,22,45.00,60.00,SummerDesignDay
7,19.895999999999999
2,1, 8,21, 0,22, 0.00,60.00,SummerDesignDay
4438,0.0
2,1, 8,21, 0,23, 0.00,15.00,SummerDesignDay
7,19.71575
2,1, 8,21, 0,23,15.00,30.00,SummerDesignDay
7,19.5355
2,1, 8,21, 0,23,30.00,45.00,SummerDesignDay
7,19.355249999999999
2,1, 8,21, 0,23,45.00,60.00,SummerDesignDay
7,19.174999999999998
2,1, 8,21, 0,23, 0.00,60.00,SummerDesignDay
4438,0.0
2,1, 8,21, 0,24, 0.00,15.00,SummerDesignDay
7,18.994749999999998
2,1, 8,21, 0,24,15.00,30.00,SummerDesignDay
7,18.8145
2,1, 8,21, 0,24,30.00,45.00,SummerDesignDay
7,18.634249999999999
2,1, 8,21, 0,24,45.00,60.00,SummerDesignDay
7,18.454
2,1, 8,21, 0,24, 0.00,60.00,SummerDesignDay
4438,0.0
1,SANTA-MARIA-PUBLIC-ARPT JUL CLG 0.4% CONDNS DB=>MCWB,  34.92,-120.47,  -8.00,  77.00
2,1, 7,21, 0, 1, 0.00,15.00,SummerDesignDay
7,20.1345
2,1, 7,21, 0, 1,15.00,30.00,SummerDesignDay
7,19.994999999999999
2,1, 7,21, 0, 1,30.00,45.00,SummerDesignDay
7,19.8555
2,1, 7,21, 0, 1,45.00,60.00,SummerDesignDay
7,19.715999999999999
2,1, 7,21, 0, 1, 0.00,60.00,SummerDesignDay
4438,0.0
2,1, 7,21, 0, 2, 0.00,15.00,SummerDesignDay
7,19.622999999999999
2,1, 7,21, 0, 2,15.00,30.00,SummerDesignDay
7,19.529999999999999
2,1, 7,21, 0, 2,30.00,45.00,SummerDesignDay
7,19.436999999999999
2,1, 7,21, 0, 2,45.00,60.00,SummerDesignDay
7,19.343999999999999
2,1, 7,21, 0, 2, 0.00,60.00,SummerDesignDay
4438,0.0
2,1, 7,21, 0, 3, 0.00,15.00,SummerDesignDay
7,19.27425
2,1, 7,21, 0, 3,15.00,30.00,SummerDesignDay
7,19.204499999999997
2,1, 7,21, 0, 3,30.00,45.00,SummerDesignDay
7,19.134749999999998
2,1, 7,21, 0, 3,45.00,60.00,SummerDesignDay
7,19.064999999999999
2,1, 7,21, 0, 3, 0.00,60.00,SummerDesignDay
4438,0.0