Program Version,EnergyPlus, Version 9.0.1-bb7ca4f0da, YMD=2019.12.17 17:02
1,5,Environment Title[],Latitude[deg],Longitude[deg],Time Zone[],Elevation[m]
2,8,Day of Simulation[],Month[],Day of Month[],DST Indicator[1=yes 0=no],Hour[],StartMinute[],EndMinute[],DayType
3,5,Cumulative Day of Simulation[],Month[],Day of Month[],DST Indicator[1=yes 0=no],DayType  ! When Daily Meters Requested
4,2,Cumulative Days of Simulation[],Month[]  ! When Monthly Meters Requested
5,1,Cumulative Days of Simulation[] ! When Run Period Meters Requested
6,1,Calendar Year of Simulation[] ! When Annual Meters Requested
46,1,InteriorLights:Electricity [J] !Hourly
345,1,NonComplianceLtg:InteriorLights:Electricity [J] !Hourly
10,1,Electricity:Facility [J] !Hourly
1532,1,InteriorEquipment:Gas [J] !Hourly
992,1,InteriorEquipment:Electricity [J] !Hourly
1496,1,Gas:Facility [J] !Hourly
4121,1,Fans:Electricity [J] !Hourly
4480,1,Pumps:Electricity [J] !Hourly
2227,1,WaterSystems:Electricity [J] !Hourly
4243,1,Heating:Electricity [J] !Hourly
4354,1,Cooling:Electricity [J] !Hourly
4230,1,Heating:Gas [J] !Hourly
2365,1,WaterSystems:Gas [J] !Hourly
1016,1,Receptacle:InteriorEquipment:Electricity [J] !Hourly
1556,1,Receptacle:InteriorEquipment:Gas [J] !Hourly
70,1,ComplianceLtg:InteriorLights:Electricity [J] !Hourly
4133,1,General:Fans:Electricity [J] !Hourly
4170,1,ProcessMotors:Fans:Electricity [J] !Hourly
End of Data Dictionary
1,SANTA-ROSA(AWOS) ANN CLG 0.4% CONDNS DB=>MCWB,  38.51,-122.81,  -8.00,  45.00
2,1, 7,21, 0, 1, 0.00,60.00,SummerDesignDay
10,654112685.4816827
46,249737579.99999974
70,96701579.99999997
345,153035999.9999997
992,231449399.99999977
1016,231449399.99999977
1496,64327488.25009696
1532,57764642.17263899
1556,57764642.17263899
2227,19210138.346197137
2365,6562846.077457977
4121,233.1673623930997
4133,40.404281918940629
4170,146.49394504991597
4230,0.0
4243,0.0
4354,153715333.96812309
4480,0.0
2,1, 7,21, 0, 2, 0.00,60.00,SummerDesignDay
10,643065673.8691566
46,249737579.99999974
70,96701579.99999997
345,153035999.9999997
992,231449399.99999977
1016,231449399.99999977
1496,64327916.05589974
1532,57764642.17263899
1556,57764642.17263899
2227,19209482.15880974
2365,6563273.883260749
4121,230.77098664084248
4133,40.41457859485567
4170,146.49394504991597
4230,0.0
4243,0.0
4354,142668980.93936018
4480,0.0
2,1, 7,21, 0, 3, 0.00,60.00,SummerDesignDay
10,635520100.6446697
46,249737579.99999974
70,96701579.99999997
345,153035999.9999997
992,231449399.99999977
1016,231449399.99999977
1496,64327959.96478307
1532,57764642.17263899
1556,57764642.17263899
2227,19208770.390698516
2365,6563317.7921440829
4121,229.156496660918
4133,40.42271978833969
4170,146.49394504991597
4230,0.0
4243,0.0
4354,135124121.09747453
4480,0.0
2,1, 7,21, 0, 4, 0.00,60.00,SummerDesignDay
10,628963090.968758
46,249737579.99999974
70,96701579.99999997
345,153035999.9999997
992,231449399.99999977
1016,231449399.99999977
1496,64328153.31175126
1532,57764642.17263899
1556,57764642.17263899
2227,19208434.398715445
2365,6563511.139112271
4121,227.76861297565456
4133,40.42931826628311
4170,146.49394504991597
4230,0.0
4243,0.0
4354,128567448.80142954
4480,0.0
2,1, 7,21, 0, 5, 0.00,60.00,SummerDesignDay
10,623755615.5224409
46,249737579.99999974
70,96701579.99999997
345,153035999.9999997
992,231449399.99999977
1016,231449399.99999977
1496,64446727.17353738
1532,57764642.17263899
1556,57764642.17263899
2227,19208966.113800806
2365,6682085.0008983849
4121,226.63401383972497
4133,40.434636638495209
4170,146.49394504991597
4230,0.0
4243,0.0
4354,123359442.7746262
4480,0.0
2,1, 7,21, 0, 6, 0.00,60.00,SummerDesignDay
10,650592952.1215755
46,249737579.99999974
70,96701579.99999997
345,153035999.9999997
992,231449399.99999977
1016,231449399.99999977
1496,64499785.53912755
1532,57764642.17263899
1556,57764642.17263899
2227,19210371.97456781
2365,6735143.366488565
4121,237.42263556816284
4133,46.66625073271311
4170,146.49394504991597
4230,0.0
4243,0.0
4354,150195362.72437216
4480,0.0
2,1, 7,21, 0, 7, 0.00,60.00,SummerDesignDay
10,734811630.277191
46,249737579.99999974
70,96701579.99999997
345,153035999.9999997
992,231449399.99999977
1016,231449399.99999977
1496,64381576.610554467
1532,57764642.17263899
1556,57764642.17263899
2227,19209956.720072554
2365,6616934.437915471
4121,280.989266228848
4133,78.904116150772
4170,146.49394504991597
4230,0.0
4243,0.0
4354,234414412.56785236
4480,0.0
2,1, 7,21, 0, 8, 0.00,60.00,SummerDesignDay
10,753497142.834861
46,249737579.99999974
70,96701579.99999997
345,153035999.9999997
992,231449399.99999977
1016,231449399.99999977
1496,64327752.93539795
1532,57764642.17263899
1556,57764642.17263899
2227,19208870.72867597
2365,6563110.762758966
4121,273.94925244210688
4133,62.24237987011074
4170,146.49394504991597
4230,0.0
4243,0.0
4354,253101018.15693254
4480,0.0
2,1, 7,21, 0, 9, 0.00,60.00,SummerDesignDay
10,798208607.523593
46,249737579.99999974
70,96701579.99999997
345,153035999.9999997
992,231449399.99999977
1016,231449399.99999977
1496,64327926.00987629
1532,57764642.17263899
1556,57764642.17263899
2227,19362813.871203834
2365,6563283.837237295
4121,284.51650639286177
4133,60.33847204123586
4170,146.49394504991597
4230,0.0
4243,0.0
4354,297658529.1358827
4480,0.0
2,1, 7,21, 0,10, 0.00,60.00,SummerDesignDay
10,841144366.976414
46,249737579.99999974
70,96701579.99999997
345,153035999.9999997
992,231449399.99999977
1016,231449399.99999977
1496,64328059.785472068
1532,57764642.17263899
1556,57764642.17263899
2227,19587928.08586534
2365,6563417.612833078
4121,294.1685880157495
4133,60.49209345388326
4170,146.49394504991597
4230,0.0
4243,0.0
4354,340369164.72196069
4480,0.0
2,1, 7,21, 0,11, 0.00,60.00,SummerDesignDay
10,878288186.1152589
46,249737579.99999974
70,96701579.99999997
345,153035999.9999997
992,231449399.99999977
1016,231449399.99999977
1496,64392715.93003123
1532,57764642.17263899
1556,57764642.17263899
2227,19587890.747364176
2365,6628073.757392237
4121,300.67805876737295
4133,60.68442679668864
4170,146.49394504991597
4230,0.0
4243,0.0
4354,377513014.6898358
4480,0.0
2,1, 7,21, 0,12, 0.00,60.00,SummerDesignDay
10,906246333.7512635
46,249737579.99999974
70,96701579.99999997
345,153035999.9999997
992,231449399.99999977
1016,231449399.99999977
1496,64499777.33918577
1532,57764642.17263899
1556,57764642.17263899
2227,19313304.69395755
2365,6735135.166546782
4121,304.82963607042697
4133,60.82725865263134
4170,146.49394504991597
4230,0.0
4243,0.0
4354,405745744.2276699
4480,0.0
2,1, 7,21, 0,13, 0.00,60.00,SummerDesignDay
10,930027537.3345966
46,249737579.99999974
70,96701579.99999997
345,153035999.9999997
992,231449399.99999977
1016,231449399.99999977
1496,64435035.01848056
1532,57764642.17263899
1556,57764642.17263899
2227,19209673.911082407
2365,6670392.845841576
4121,309.09902018188049
4133,61.16452756528758
4170,146.49394504991597
4230,0.0
4243,0.0
4354,429630574.32449409
4480,0.0
2,1, 7,21, 0,14, 0.00,60.00,SummerDesignDay
10,952270183.734158
46,249737579.99999974
70,96701579.99999997
345,153035999.9999997
992,231449399.99999977
1016,231449399.99999977
1496,64327826.57341851
1532,57764642.17263899
1556,57764642.17263899
2227,19208966.369330493
2365,6563184.400779525
4121,314.66414506864188
4133,61.92376404318031
4170,146.49394504991597
4230,0.0
4243,0.0
4354,451873922.7006825
4480,0.0
2,1, 7,21, 0,15, 0.00,60.00,SummerDesignDay
10,970728142.4509888
46,249737579.99999974
70,96701579.99999997
345,153035999.9999997
992,231449399.99999977
1016,231449399.99999977
1496,64328046.47277668
1532,57764642.17263899
1556,57764642.17263899
2227,19208421.068149266
2365,6563404.300137698
4121,322.3800088455623
4133,63.47328215004927
4170,146.49394504991597
4230,0.0
4243,0.0
4354,470332419.0028305
4480,0.0
2,1, 7,21, 0,16, 0.00,60.00,SummerDesignDay
10,972409869.1501752
46,249737579.99999974
70,96701579.99999997
345,153035999.9999997
992,231449399.99999977
1016,231449399.99999977
1496,64328095.35727683
1532,57764642.17263899
1556,57764642.17263899
2227,19208745.175060758
2365,6563453.18463784
4121,327.0467195440254
4133,64.88483462642208
4170,146.49394504991597
4230,0.0
4243,0.0
4354,472013816.9283951
4480,0.0
2,1, 7,21, 0,17, 0.00,60.00,SummerDesignDay
10,955302572.7032706
46,249737579.99999974
70,96701579.99999997
345,153035999.9999997
992,231449399.99999977
1016,231449399.99999977
1496,64339047.19043433
1532,57764642.17263899
1556,57764642.17263899
2227,19209834.186397308
2365,6574405.017795338
4121,325.12834301936149
4133,64.87921813639578
4170,146.49394504991597
4230,0.0
4243,0.0
4354,454905433.3885302
4480,0.0
2,1, 7,21, 0,18, 0.00,60.00,SummerDesignDay
10,926012778.9720736
46,249737579.99999974
70,96701579.99999997
345,153035999.9999997
992,231449399.99999977
1016,231449399.99999977
1496,64499825.3605232
1532,57764642.17263899
1556,57764642.17263899
2227,19210065.467387096
2365,6735183.187884213
4121,318.365846556085
4133,64.06818015299052
4170,146.49394504991597
4230,0.0
4243,0.0
4354,425615415.13883998
4480,0.0
2,1, 7,21, 0,19, 0.00,60.00,SummerDesignDay
10,880857353.2732412
46,249737579.99999974
70,96701579.99999997
345,153035999.9999997
992,231449399.99999977
1016,231449399.99999977
1496,64488836.6637
1532,57764642.17263899
1556,57764642.17263899
2227,19208927.60754697
2365,6724194.491061007
4121,305.5726314964642
4133,61.54657435173955
4170,146.49394504991597
4230,0.0
4243,0.0
4354,380461140.0930628
4480,0.0
2,1, 7,21, 0,20, 0.00,60.00,SummerDesignDay
10,822118737.3098574
46,249737579.99999974
70,96701579.99999997
345,153035999.9999997
992,231449399.99999977
1016,231449399.99999977
1496,64327689.2861352
1532,57764642.17263899
1556,57764642.17263899
2227,19259880.059375749
2365,6563047.1134962
4121,284.3343072354701
4133,58.266009044707988
4170,146.49394504991597
4230,0.0
4243,0.0
4354,321671592.91617456
4480,0.0
2,1, 7,21, 0,21, 0.00,60.00,SummerDesignDay
10,782635213.4253025
46,249737579.99999974
70,96701579.99999997
345,153035999.9999997
992,231449399.99999977
1016,231449399.99999977
1496,64327841.79380181
1532,57764642.17263899
1556,57764642.17263899
2227,19588723.75936061
2365,6563199.621162822
4121,270.09712459216339
4133,55.617081754943729
4170,146.49394504991597
4230,0.0
4243,0.0
4354,281859239.5688171
4480,0.0
2,1, 7,21, 0,22, 0.00,60.00,SummerDesignDay
10,725344100.604901
46,249737579.99999974
70,96701579.99999997
345,153035999.9999997
992,231449399.99999977
1016,231449399.99999977
1496,64328030.10537074
1532,57764642.17263899
1556,57764642.17263899
2227,19588147.201655918
2365,6563387.9327317499
4121,251.11586473707787
4133,44.455682344646209
4170,146.49394504991597
4230,0.0
4243,0.0
4354,224568722.28738023
4480,0.0
2,1, 7,21, 0,23, 0.00,60.00,SummerDesignDay
10,702769056.5713983
46,249737579.99999974
70,96701579.99999997
345,153035999.9999997
992,231449399.99999977
1016,231449399.99999977
1496,64328249.26906418
1532,57764642.17263899
1556,57764642.17263899
2227,19413224.36167954
2365,6563607.096425191
4121,244.9401072188798
4133,44.01837915653711
4170,146.49394504991597
4230,0.0
4243,0.0
4354,202168607.2696115
4480,0.0
2,1, 7,21, 0,24, 0.00,60.00,SummerDesignDay
10,683312933.149733
46,249737579.99999974
70,96701579.99999997
345,153035999.9999997
992,231449399.99999977
1016,231449399.99999977
1496,64457503.49154957
1532,57764642.17263899
1556,57764642.17263899
2227,19209859.130397075
2365,6692861.318910579
4121,240.14274024114375
4133,43.68308030192697
4170,146.49394504991597
4230,0.0
4243,0.0
4354,182915853.87659583
4480,0.0
1,SANTA-ROSA(AWOS) ANN CLG 0.4% CONDNS DP=>MCDB,  38.51,-122.81,  -8.00,  45.00
2,1, 7,21, 0, 1, 0.00,60.00,SummerDesignDay
10,530880552.36368677
46,249737579.99999974
70,96701579.99999997
345,153035999.9999997
992,231449399.99999977
1016,231449399.99999977
1496,101075882.04450706
1532,57764642.17263899
1556,57764642.17263899
2227,19209822.263842167
2365,6562992.242308116
4121,204.5162009246543
4133,40.376377224765779
4170,146.49394504991597
4230,36748247.62955996
4243,0.0
4354,30483545.5836438
4480,0.0
2,1, 7,21, 0, 2, 0.00,60.00,SummerDesignDay
10,525144457.9026958
46,249737579.99999974
70,96701579.99999997
345,153035999.9999997
992,231449399.99999977
1016,231449399.99999977
1496,123597550.15588647
1532,57764642.17263899
1556,57764642.17263899
2227,19209481.790860416
2365,6563273.183613157
4121,201.2881118057124
4133,40.38195598100048
4170,146.49394504991597
4230,59269634.79963432
4243,0.0
4354,24747794.823723407
4480,0.0
2,1, 7,21, 0, 3, 0.00,60.00,SummerDesignDay
10,521283274.2183766
46,249737579.99999974
70,96701579.99999997
345,153035999.9999997
992,231449399.99999977
1016,231449399.99999977
1496,138717470.8727574
1532,57764642.17263899
1556,57764642.17263899
2227,19208770.014633366
2365,6563317.236497737
4121,199.11657564972399
4133,40.38550620215885
4170,146.49394504991597
4230,74389511.46362069
4243,0.0
4354,20887325.08716759
4480,0.0
2,1, 7,21, 0, 4, 0.00,60.00,SummerDesignDay
10,518349216.05785867
46,249737579.99999974
70,96701579.99999997
345,153035999.9999997
992,231449399.99999977
1016,231449399.99999977
1496,151098386.91377158
1532,57764642.17263899
1556,57764642.17263899
2227,19208434.478124426
2365,6563511.40146278
4121,197.45781097587187
4133,40.387868461367109
4170,146.49394504991597
4230,86770233.3396698
4243,0.0
4354,17953604.12192328
4480,0.0
2,1, 7,21, 0, 5, 0.00,60.00,SummerDesignDay
10,516203782.8363439
46,249737579.99999974
70,96701579.99999997
345,153035999.9999997
992,231449399.99999977
1016,231449399.99999977
1496,160833612.32134957
1532,57764642.17263899
1556,57764642.17263899
2227,19208966.59163085
2365,6681782.044671274
4121,196.2416440248865
4133,40.38946245053364
4170,146.49394504991597
4230,96387188.10403928
4243,0.0
4354,15807640.003069109
4480,0.0
2,1, 7,21, 0, 6, 0.00,60.00,SummerDesignDay
10,530575844.91921177
46,249737579.99999974
70,96701579.99999997
345,153035999.9999997
992,231449399.99999977
1016,231449399.99999977
1496,139233103.41226996
1532,57764642.17263899
1556,57764642.17263899
2227,19210290.659520296
2365,6735133.749086419
4121,202.9915139683816
4133,43.61334240884678
4170,146.49394504991597
4230,74733327.49054453
4243,0.0
4354,30178371.268177466
4480,0.0
2,1, 7,21, 0, 7, 0.00,60.00,SummerDesignDay
10,582708874.2866619
46,249737579.99999974
70,96701579.99999997
345,153035999.9999997
992,231449399.99999977
1016,231449399.99999977
1496,66912634.896557439
1532,57764642.17263899
1556,57764642.17263899
2227,19209901.786528939
2365,6617430.136054269
4121,228.74058874028678
4133,58.75150227709487
4170,146.49394504991597
4230,2530562.5878641775
4243,0.0
4354,82311763.75954421
4480,0.0
2,1, 7,21, 0, 8, 0.00,60.00,SummerDesignDay
10,607745930.5186426
46,249737579.99999974
70,96701579.99999997
345,153035999.9999997
992,231449399.99999977
1016,231449399.99999977
1496,64327752.713766518
1532,57764642.17263899
1556,57764642.17263899
2227,19208870.45075719
2365,6563110.541127522
4121,232.65398775239718
4133,51.5283797464896
4170,146.49394504991597
4230,0.0
4243,0.0
4354,107349847.4138976
4480,0.0
2,1, 7,21, 0, 9, 0.00,60.00,SummerDesignDay
10,662430754.8540044
46,249737579.99999974
70,96701579.99999997
345,153035999.9999997
992,231449399.99999977
1016,231449399.99999977
1496,64327925.56866859
1532,57764642.17263899
1556,57764642.17263899
2227,19363485.926646979
2365,6563283.396029604
4121,247.18302550243195
4133,51.5385707384292
4170,146.49394504991597
4230,0.0
4243,0.0
4354,161880041.74433188
4480,0.0
2,1, 7,21, 0,10, 0.00,60.00,SummerDesignDay
10,713801431.8376064
46,249737579.99999974
70,96701579.99999997
345,153035999.9999997
992,231449399.99999977
1016,231449399.99999977
1496,64328059.62003733
1532,57764642.17263899
1556,57764642.17263899
2227,19587927.91079888
2365,6563417.447398347
4121,259.4071526118731
4133,52.315306335664747
4170,146.49394504991597
4230,0.0
4243,0.0
4354,213026264.51965494
4480,0.0
2,1, 7,21, 0,11, 0.00,60.00,SummerDesignDay
10,750806854.6822103
46,249737579.99999974
70,96701579.99999997
345,153035999.9999997
992,231449399.99999977
1016,231449399.99999977
1496,64392107.09659915
1532,57764642.17263899
1556,57764642.17263899
2227,19587890.796508224
2365,6627464.92396016
4121,267.22614754596079
4133,52.94774965634481
4170,146.49394504991597
4230,0.0
4243,0.0
4354,250031716.65955449
4480,0.0
2,1, 7,21, 0,12, 0.00,60.00,SummerDesignDay
10,776231375.9684603
46,249737579.99999974
70,96701579.99999997
345,153035999.9999997
992,231449399.99999977
1016,231449399.99999977
1496,64499725.635486338
1532,57764642.17263899
1556,57764642.17263899
2227,19312608.587937159
2365,6735083.462847348
4121,271.79162867886319
4133,53.42044471574066
4170,146.49394504991597
4230,0.0
4243,0.0
4354,275731515.5888944
4480,0.0
2,1, 7,21, 0,13, 0.00,60.00,SummerDesignDay
10,797199117.9761593
46,249737579.99999974
70,96701579.99999997
345,153035999.9999997
992,231449399.99999977
1016,231449399.99999977
1496,64462312.970075
1532,57764642.17263899
1556,57764642.17263899
2227,19209672.457834808
2365,6671120.142135901
4121,276.0226617504743
4133,53.9372641145748
4170,146.49394504991597
4230,26550.655300098202
4243,0.0
4354,296802189.4956629
4480,0.0
2,1, 7,21, 0,14, 0.00,60.00,SummerDesignDay
10,815831038.48815
46,249737579.99999974
70,96701579.99999997
345,153035999.9999997
992,231449399.99999977
1016,231449399.99999977
1496,64551729.512076918
1532,57764642.17263899
1556,57764642.17263899
2227,19208964.88407555
2365,6563185.038247963
4121,281.4242703064305
4133,54.70138111692259
4170,146.49394504991597
4230,223902.30118995504
4243,0.0
4354,315434812.1798043
4480,0.0
2,1, 7,21, 0,15, 0.00,60.00,SummerDesignDay
10,832225377.8443827
46,249737579.99999974
70,96701579.99999997
345,153035999.9999997
992,231449399.99999977
1016,231449399.99999977
1496,64646245.31569455
1532,57764642.17263899
1556,57764642.17263899
2227,19208420.95801699
2365,6563405.261161329
4121,288.9268131687709
4133,56.06777094186177
4170,146.49394504991597
4230,318197.8818942282
4243,0.0
4354,331829687.9595522
4480,0.0
2,1, 7,21, 0,16, 0.00,60.00,SummerDesignDay
10,834610996.8350417
46,249737579.99999974
70,96701579.99999997
345,153035999.9999997
992,231449399.99999977
1016,231449399.99999977
1496,64698809.17637796
1532,57764642.17263899
1556,57764642.17263899
2227,19208746.638067619
2365,6563451.443600484
4121,293.32449513318479
4133,57.329652917162309
4170,146.49394504991597
4230,370715.5601384898
4243,0.0
4354,334214976.872479
4480,0.0
2,1, 7,21, 0,17, 0.00,60.00,SummerDesignDay
10,819825461.1745869
46,249737579.99999974
70,96701579.99999997
345,153035999.9999997
992,231449399.99999977
1016,231449399.99999977
1496,64798487.9722472
1532,57764642.17263899
1556,57764642.17263899
2227,19209837.247841758
2365,6573679.506286791
4121,291.58784452523147
4133,57.432233338081179
4170,146.49394504991597
4230,460166.29332141476
4243,0.0
4354,319428352.3389005
4480,0.0
2,1, 7,21, 0,18, 0.00,60.00,SummerDesignDay
10,794142617.2892245
46,249737579.99999974
70,96701579.99999997
345,153035999.9999997
992,231449399.99999977
1016,231449399.99999977
1496,65096082.19499088
1532,57764642.17263899
1556,57764642.17263899
2227,19210064.034452045
2365,6735182.8894967469
4121,285.5030516781759
4133,56.81083886893956
4170,146.49394504991597
4230,596257.1328551433
4243,0.0
4354,293745287.7517207
4480,0.0
2,1, 7,21, 0,19, 0.00,60.00,SummerDesignDay
10,753737166.5324022
46,249737579.99999974
70,96701579.99999997
345,153035999.9999997
992,231449399.99999977
1016,231449399.99999977
1496,65290478.64589026
1532,57764642.17263899
1556,57764642.17263899
2227,19208995.564593667
2365,6724786.538040048
4121,273.8215337377517
4133,54.808293713837027
4170,146.49394504991597
4230,801049.9352112096
4243,0.0
4354,253340917.1462748
4480,0.0
2,1, 7,21, 0,20, 0.00,60.00,SummerDesignDay
10,699666657.9101185
46,249737579.99999974
70,96701579.99999997
345,153035999.9999997
992,231449399.99999977
1016,231449399.99999977
1496,65401726.294973518
1532,57764642.17263899
1556,57764642.17263899
2227,19259893.946455085
2365,6563048.781284678
4121,253.51109017077469
4133,52.19521610716419
4170,146.49394504991597
4230,1074035.341049851
4243,0.0
4354,199219530.45257319
4480,0.0
2,1, 7,21, 0,21, 0.00,60.00,SummerDesignDay
10,660149306.9836334
46,249737579.99999974
70,96701579.99999997
345,153035999.9999997
992,231449399.99999977
1016,231449399.99999977
1496,65672855.72458437
1532,57764642.17263899
1556,57764642.17263899
2227,19588391.352749245
2365,6563297.421007522
4121,239.45323138717675
4133,50.03495622813338
4170,146.49394504991597
4230,1344916.1309378555
4243,0.0
4354,159373696.17765285
4480,0.0
2,1, 7,21, 0,22, 0.00,60.00,SummerDesignDay
10,599712561.600501
46,249737579.99999974
70,96701579.99999997
345,153035999.9999997
992,231449399.99999977
1016,231449399.99999977
1496,64328502.52185692
1532,57764642.17263899
1556,57764642.17263899
2227,19588034.452600264
2365,6563860.349217937
4121,224.0667660976839
4133,43.0847380138831
4170,146.49394504991597
4230,0.0
4243,0.0
4354,98937323.08113447
4480,0.0
2,1, 7,21, 0,23, 0.00,60.00,SummerDesignDay
10,571108706.194348
46,249737579.99999974
70,96701579.99999997
345,153035999.9999997
992,231449399.99999977
1016,231449399.99999977
1496,64328423.471745539
1532,57764642.17263899
1556,57764642.17263899
2227,19415851.597843823
2365,6563781.299106549
4121,217.0380460990195
4133,42.697346517913
4170,146.49394504991597
4230,0.0
4243,0.0
4354,70505657.55845802
4480,0.0
2,1, 7,21, 0,24, 0.00,60.00,SummerDesignDay
10,551455736.2937965
46,249737579.99999974
70,96701579.99999997
345,153035999.9999997
992,231449399.99999977
1016,231449399.99999977
1496,72117173.45070189
1532,57764642.17263899
1556,57764642.17263899
2227,19209863.808339269
2365,6691329.559073258
4121,211.22085613925572
4133,42.41713435489777
4170,146.49394504991597
4230,7661201.718989639
4243,0.0
4354,51058681.26460118
4480,0.0
1,SANTA-ROSA(AWOS) ANN HTG 99.6% CONDNS DB,  38.51,-122.81,  -8.00,  45.00
2,1, 1,21, 0, 1, 0.00,60.00,WinterDesignDay
10,72222.08237597344
46,0.0
70,0.0
345,0.0
992,0.0
1016,0.0
1496,640739055.885592
1532,0.0
1556,0.0
2227,72000.0
2365,579679.2082582207
4121,222.08237597336976
4133,40.31494831758426
4170,146.49394504991597
4230,640159376.6773338
4243,0.0
4354,0.0
4480,0.0
2,1, 1,21, 0, 2, 0.00,60.00,WinterDesignDay
10,72231.29516887167
46,0.0
70,0.0
345,0.0
992,0.0
1016,0.0
1496,717619078.0073671
1532,0.0
1556,0.0
2227,72000.0
2365,833426.0537777685
4121,231.29516887160725
4133,40.31494831758427
4170,146.49394504991597
4230,716785651.9535894
4243,0.0
4354,0.0
4480,0.0
2,1, 1,21, 0, 3, 0.00,60.00,WinterDesignDay
10,72238.5078004254
46,0.0
70,0.0
345,0.0
992,0.0
1016,0.0
1496,786438076.1138637
1532,0.0
1556,0.0
2227,72000.0
2365,833372.260113105
4121,238.50780042533817
4133,40.31494831758427
4170,146.49394504991597
4230,785604703.8537505
4243,0.0
4354,0.0
4480,0.0
2,1, 1,21, 0, 4, 0.00,60.00,WinterDesignDay
10,72243.92893464337
46,0.0
70,0.0
345,0.0
992,0.0
1016,0.0
1496,847219181.9891483
1532,0.0
1556,0.0
2227,72000.0
2365,833413.0287646682
4121,243.92893464327609
4133,40.31494831758427
4170,146.49394504991597
4230,846385768.9603837
4243,0.0
4354,0.0
4480,0.0
2,1, 1,21, 0, 5, 0.00,60.00,WinterDesignDay
10,72248.00572790043
46,0.0
70,0.0
345,0.0
992,0.0
1016,0.0
1496,891179211.8797805
1532,0.0
1556,0.0
2227,72000.0
2365,833295.4372784831
4121,248.0057279003488
4133,40.31494831758427
4170,146.49394504991597
4230,890345916.442502
4243,0.0
4354,0.0
4480,0.0
2,1, 1,21, 0, 6, 0.00,60.00,WinterDesignDay
10,3976646.266560548
46,0.0
70,0.0
345,0.0
992,0.0
1016,0.0
1496,1088212267.0777617
1532,0.0
1556,0.0
2227,72000.0
2365,670155.8007042072
4121,273.5477340773338
4133,63.32174094822234
4170,146.49394504991597
4230,1087542111.2770575
4243,0.0
4354,3904372.718826471
4480,0.0
2,1, 1,21, 0, 7, 0.00,60.00,WinterDesignDay
10,4190618.450735441
46,0.0
70,0.0
345,0.0
992,0.0
1016,0.0
1496,1949686158.0413247
1532,0.0
1556,0.0
2227,72000.0
2365,743012.315574411
4121,398.2146758324284
4133,104.46342988020987
4170,146.49394504991597
4230,1948943145.7257505
4243,0.0
4354,4118220.236059609
4480,0.0
2,1, 1,21, 0, 8, 0.00,60.00,WinterDesignDay
10,72321.68790088012
46,0.0
70,0.0
345,0.0
992,0.0
1016,0.0
1496,1690837363.1690865
1532,0.0
1556,0.0
2227,72000.0
2365,833535.8651142255
4121,321.6879008800495
4133,43.50878383422227
4170,146.49394504991597
4230,1690003827.3039723
4243,0.0
4354,0.0
4480,0.0
2,1, 1,21, 0, 9, 0.00,60.00,WinterDesignDay
10,72303.02263304252
46,0.0
70,0.0
345,0.0
992,0.0
1016,0.0
1496,1520807873.8011335
1532,0.0
1556,0.0
2227,72000.0
2365,833339.932199396
4121,303.0226330424402
4133,41.40960116086376
4170,146.49394504991597
4230,1519974533.8689342
4243,0.0
4354,0.0
4480,0.0
2,1, 1,21, 0,10, 0.00,60.00,WinterDesignDay
10,72293.89145509259
46,0.0
70,0.0
345,0.0
992,0.0
1016,0.0
1496,1435118194.0133916
1532,0.0
1556,0.0
2227,72000.0
2365,833380.9188765364
4121,293.89145509249439
4133,40.77070703195624
4170,146.49394504991597
4230,1434284813.094515
4243,0.0
4354,0.0
4480,0.0
2,1, 1,21, 0,11, 0.00,60.00,WinterDesignDay
10,72288.4260684074
46,0.0
70,0.0
345,0.0
992,0.0
1016,0.0
1496,1382364255.7262736
1532,0.0
1556,0.0
2227,72000.0
2365,833292.0567876503
4121,288.4260684073167
4133,40.57326886858701
4170,146.49394504991597
4230,1381530963.669486
4243,0.0
4354,0.0
4480,0.0
2,1, 1,21, 0,12, 0.00,60.00,WinterDesignDay
10,72284.79976141916
46,0.0
70,0.0
345,0.0
992,0.0
1016,0.0
1496,1347233661.532868
1532,0.0
1556,0.0
2227,72000.0
2365,579602.1569982444
4121,284.79976141908716
4133,40.47748338869092
4170,146.49394504991597
4230,1346654059.3758693
4243,0.0
4354,0.0
4480,0.0
2,1, 1,21, 0,13, 0.00,60.00,WinterDesignDay
10,72282.2959001183
46,0.0
70,0.0
345,0.0
992,0.0
1016,0.0
1496,1323142441.9834593
1532,0.0
1556,0.0
2227,72000.0
2365,833383.6566107835
4121,282.2959001182246
4133,40.417825195951397
4170,146.49394504991597
4230,1322309058.3268486
4243,0.0
4354,0.0
4480,0.0
2,1, 1,21, 0,14, 0.00,60.00,WinterDesignDay
10,72280.53186951208
46,0.0
70,0.0
345,0.0
992,0.0
1016,0.0
1496,1305881830.9094673
1532,0.0
1556,0.0
2227,72000.0
2365,833425.1006262994
4121,280.53186951201288
4133,40.38318501725696
4170,146.49394504991597
4230,1305048405.8088408
4243,0.0
4354,0.0
4480,0.0
2,1, 1,21, 0,15, 0.00,60.00,WinterDesignDay
10,72279.29851592289
46,0.0
70,0.0
345,0.0
992,0.0
1016,0.0
1496,1293572746.5723384
1532,0.0
1556,0.0
2227,72000.0
2365,833321.097384713
4121,279.29851592282429
4133,40.368944772029177
4170,146.49394504991597
4230,1292739425.4749537
4243,0.0
4354,0.0
4480,0.0
2,1, 1,21, 0,16, 0.00,60.00,WinterDesignDay
10,72278.4114024027
46,0.0
70,0.0
345,0.0
992,0.0
1016,0.0
1496,1284584219.768794
1532,0.0
1556,0.0
2227,72000.0
2365,833348.6391793164
4121,278.41140240261839
4133,40.36050675674613
4170,146.49394504991597
4230,1283750871.1296147
4243,0.0
4354,0.0
4480,0.0
2,1, 1,21, 0,17, 0.00,60.00,WinterDesignDay
10,72277.76721130802
46,0.0
70,0.0
345,0.0
992,0.0
1016,0.0
1496,1278054846.9919558
1532,0.0
1556,0.0
2227,72000.0
2365,833388.8036804353
4121,277.7672113079337
4133,40.354768248081679
4170,146.49394504991597
4230,1277221458.188275
4243,0.0
4354,0.0
4480,0.0
2,1, 1,21, 0,18, 0.00,60.00,WinterDesignDay
10,72277.3013744735
46,0.0
70,0.0
345,0.0
992,0.0
1016,0.0
1496,1273001107.2918649
1532,0.0
1556,0.0
2227,72000.0
2365,579580.6609662215
4121,277.30137447343136
4133,40.350646471351357
4170,146.49394504991597
4230,1272421526.6308985
4243,0.0
4354,0.0
4480,0.0
2,1, 1,21, 0,19, 0.00,60.00,WinterDesignDay
10,72276.97517848268
46,0.0
70,0.0
345,0.0
992,0.0
1016,0.0
1496,1269823856.6069875
1532,0.0
1556,0.0
2227,72000.0
2365,833354.0765742017
4121,276.97517848260858
4133,40.34822642639135
4170,146.49394504991597
4230,1268990502.5304132
4243,0.0
4354,0.0
4480,0.0
2,1, 1,21, 0,20, 0.00,60.00,WinterDesignDay
10,72276.73196313152
46,0.0
70,0.0
345,0.0
992,0.0
1016,0.0
1496,1267258256.4023977
1532,0.0
1556,0.0
2227,72000.0
2365,833392.943434727
4121,276.731963131454
4133,40.346778639088189
4170,146.49394504991597
4230,1266424863.458963
4243,0.0
4354,0.0
4480,0.0
2,1, 1,21, 0,21, 0.00,60.00,WinterDesignDay
10,72276.55198712346
46,0.0
70,0.0
345,0.0
992,0.0
1016,0.0
1496,1265268832.4159077
1532,0.0
1556,0.0
2227,72000.0
2365,833433.5728923695
4121,276.5519871233902
4133,40.34592489141906
4170,146.49394504991597
4230,1264435398.8430155
4243,0.0
4354,0.0
4480,0.0
2,1, 1,21, 0,22, 0.00,60.00,WinterDesignDay
10,846475.8990969366
46,0.0
70,0.0
345,0.0
992,0.0
1016,0.0
1496,1059925695.3661472
1532,0.0
1556,0.0
2227,846199.4851579195
2365,833470.2953920772
4121,276.4139390169043
4133,40.345236427827369
4170,146.49394504991597
4230,1059092225.070755
4243,0.0
4354,0.0
4480,0.0
2,1, 1,21, 0,23, 0.00,60.00,WinterDesignDay
10,72187.68107419626
46,0.0
70,0.0
345,0.0
992,0.0
1016,0.0
1496,452381151.30935266
1532,0.0
1556,0.0
2227,72000.0
2365,773524.5772192907
4121,187.68107419619958
4133,40.364526711928309
4170,146.49394504991597
4230,451607626.7321333
4243,0.0
4354,0.0
4480,0.0
2,1, 1,21, 0,24, 0.00,60.00,WinterDesignDay
10,72208.22545758909
46,0.0
70,0.0
345,0.0
992,0.0
1016,0.0
1496,628073051.9314466
1532,0.0
1556,0.0
2227,72000.0
2365,639481.0128015565
4121,208.22545758900518
4133,40.539339668377809
4170,146.49394504991597
4230,627433570.9186452
4243,0.0
4354,0.0
4480,0.0
1,SANTA-ROSA(AWOS) AUG CLG 0.4% CONDNS DB=>MCWB,  38.51,-122.81,  -8.00,  45.00
2,1, 8,21, 0, 1, 0.00,60.00,SummerDesignDay
10,656750521.4672074
46,249737579.99999974
70,96701579.99999997
345,153035999.9999997
992,231449399.99999977
1016,231449399.99999977
1496,64341962.18985426
1532,57764642.17263899
1556,57764642.17263899
2227,19241888.689456878
2365,6577320.01721526
4121,233.6458526247744
4133,40.40394809284546
4170,146.49394504991597
4230,0.0
4243,0.0
4354,156321419.13189806
4480,0.0
2,1, 8,21, 0, 2, 0.00,60.00,SummerDesignDay
10,644969497.3852663
46,249737579.99999974
70,96701579.99999997
345,153035999.9999997
992,231449399.99999977
1016,231449399.99999977
1496,64342559.11562729
1532,57764642.17263899
1556,57764642.17263899
2227,19240729.18058701
2365,6577916.942988297
4121,231.15776524778665
4133,40.414451253411488
4170,146.49394504991597
4230,0.0
4243,0.0
4354,144541557.04691414
4480,0.0
2,1, 8,21, 0, 3, 0.00,60.00,SummerDesignDay