Program Version,EnergyPlus, Version 9.0.1-bb7ca4f0da, YMD=2019.12.18 15:46
1,5,Environment Title[],Latitude[deg],Longitude[deg],Time Zone[],Elevation[m]
2,8,Day of Simulation[],Month[],Day of Month[],DST Indicator[1=yes 0=no],Hour[],StartMinute[],EndMinute[],DayType
3,5,Cumulative Day of Simulation[],Month[],Day of Month[],DST Indicator[1=yes 0=no],DayType  ! When Daily Meters Requested
4,2,Cumulative Days of Simulation[],Month[]  ! When Monthly Meters Requested
5,1,Cumulative Days of Simulation[] ! When Run Period Meters Requested
6,1,Calendar Year of Simulation[] ! When Annual Meters Requested
71,1,ComplianceLtg:InteriorLights:Electricity [J] !Hourly
1497,1,Gas:Facility [J] !Hourly
993,1,InteriorEquipment:Electricity [J] !Hourly
4235,1,Heating:Electricity [J] !Hourly
1533,1,InteriorEquipment:Gas [J] !Hourly
47,1,InteriorLights:Electricity [J] !Hourly
2228,1,WaterSystems:Electricity [J] !Hourly
11,1,Electricity:Facility [J] !Hourly
4114,1,Fans:Electricity [J] !Hourly
4471,1,Pumps:Electricity [J] !Hourly
4350,1,Cooling:Electricity [J] !Hourly
2366,1,WaterSystems:Gas [J] !Hourly
4222,1,Heating:Gas [J] !Hourly
1017,1,Receptacle:InteriorEquipment:Electricity [J] !Hourly
1557,1,Receptacle:InteriorEquipment:Gas [J] !Hourly
346,1,NonComplianceLtg:InteriorLights:Electricity [J] !Hourly
4126,1,General:Fans:Electricity [J] !Hourly
4162,1,ProcessMotors:Fans:Electricity [J] !Hourly
End of Data Dictionary
1,SAN-JOSE-INTL_724945_CZ2010,  37.37,-121.93,  -8.00,  16.00
2,1, 1, 1, 0, 1, 0.00,60.00,Holiday
11,66341557.518742408
47,24156278.99999996
71,4835078.999999999
346,19321199.999999968
993,18722069.99999997
1017,18722069.99999997
1497,1042349.4213998953
1533,0.0
1557,0.0
2228,805502.0733320596
2366,1042349.4213998953
4114,22657706.445410395
4126,8458341.339612136
4162,14199365.10579826
4222,0.0
4235,0.0
4350,0.0
4471,0.0
2,1, 1, 1, 0, 2, 0.00,60.00,Holiday
11,67146844.29876013
47,24156278.99999996
71,4835078.999999999
346,19321199.999999968
993,18722069.99999997
1017,18722069.99999997
1497,1042592.5507880347
1533,0.0
1557,0.0
2228,1610788.8533497877
2366,1042592.5507880347
4114,22657706.445410395
4126,8458341.339612136
4162,14199365.10579826
4222,0.0
4235,0.0
4350,0.0
4471,0.0
2,1, 1, 1, 0, 3, 0.00,60.00,Holiday
11,67146862.32719863
47,24156278.99999996
71,4835078.999999999
346,19321199.999999968
993,18722069.99999997
1017,18722069.99999997
1497,1303235.4090085263
1533,0.0
1557,0.0
2228,1610806.8817882795
2366,1303235.4090085263
4114,22657706.445410395
4126,8458341.339612136
4162,14199365.10579826
4222,0.0
4235,0.0
4350,0.0
4471,0.0
2,1, 1, 1, 0, 4, 0.00,60.00,Holiday
11,66334837.45500685
47,24156278.99999996
71,4835078.999999999
346,19321199.999999968
993,18722069.99999997
1017,18722069.99999997
1497,1037175.8276453293
1533,0.0
1557,0.0
2228,798782.0095965132
2366,1037175.8276453293
4114,22657706.445410395
4126,8458341.339612136
4162,14199365.10579826
4222,0.0
4235,0.0
4350,0.0
4471,0.0
2,1, 1, 1, 0, 5, 0.00,60.00,Holiday
11,67133692.27701709
47,24156278.99999996
71,4835078.999999999
346,19321199.999999968
993,18722069.99999997
1017,18722069.99999997
1497,1037410.8491177575
1533,0.0
1557,0.0
2228,1597636.831606752
2366,1037410.8491177575
4114,22657706.445410395
4126,8458341.339612136
4162,14199365.10579826
4222,0.0
4235,0.0
4350,0.0
4471,0.0
2,1, 1, 1, 0, 6, 0.00,60.00,Holiday
11,126362691.81143156
47,52754678.99999992
71,4835078.999999999
346,47919599.99999992
993,47320469.999999929
1017,47320469.999999929
1497,61518346.635357018
1533,0.0
1557,0.0
2228,1597675.7870477292
2366,1305365.3753127403
4114,24689867.02438388
4126,10490501.918585619
4162,14199365.10579826
4222,60212981.26004428
4235,0.0
4350,0.0
4471,0.0
2,1, 1, 1, 0, 7, 0.00,60.00,Holiday
11,179179615.1416386
47,74203478.99999988
71,4835078.999999999
346,69368399.9999999
993,68769269.9999999
1017,68769269.9999999
1497,342201930.9557288
1533,28597212.921243654
1557,28597212.921243654
2228,805527.6511884739
2366,1042571.6906731902
4114,35401338.49045033
4126,10490501.918585619
4162,14199365.105798258
4222,312562146.343812
4235,0.0
4350,0.0
4471,0.0
2,1, 1, 1, 0, 8, 0.00,60.00,Holiday
11,177193997.51608528
47,74200627.58204538
71,4832227.582045493
346,69368399.9999999
993,68769269.9999999
1017,68769269.9999999
1497,215191569.03584028
1533,28597212.921243654
1557,28597212.921243654
2228,2477642.5571625556
2366,1322877.7727715118
4114,31721537.019550299
4126,12197454.19272478
4162,14199365.10579826
4222,185271478.3418251
4235,36.16717983623862
4350,0.0
4471,24884.190147276688
2,1, 1, 1, 0, 9, 0.00,60.00,Holiday
11,195214340.0311402
47,77864265.5937491
71,8495865.593749222
346,69368399.9999999
993,72641339.99999988
1017,72641339.99999988
1497,480395470.9335854
1533,0.0
1557,0.0
2228,2520514.1093653428
2366,1336475.4599489636
4114,41367685.43024592
4126,23535822.373083049
4162,14199365.10579826
4222,479058995.4736365
4235,68235.4934610894
4350,0.0
4471,752299.4043187723
2,1, 1, 1, 0,10, 0.00,60.00,Holiday
11,187229553.89600847
47,77818802.32999805
71,8450402.329998168
346,69368399.9999999
993,72641339.99999988
1017,72641339.99999988
1497,379480855.00818416
1533,0.0
1557,0.0
2228,2564791.766542364
2366,1349950.3648175896
4114,33894970.28907463
4126,16555235.038866636
4162,14199365.10579826
4222,378130904.6433666
4235,45737.1325151103
4350,0.0
4471,263912.3778784181
2,1, 1, 1, 0,11, 0.00,60.00,Holiday
11,194129359.7412567
47,78179413.57358897
71,30259813.573589013
346,47919599.99999992
993,74424959.99999996
1017,74424959.99999996
1497,341555004.3299643
1533,0.0
1557,0.0
2228,5909596.674549982
2366,2047760.4020381144
4114,35374370.83779603
4126,16519577.605455209
4162,14199365.10579826
4222,339507243.9279262
4235,30505.714828649812
4350,0.0
4471,210512.94049315007
2,1, 1, 1, 0,12, 0.00,60.00,Holiday
11,194646382.7091208
47,78042289.0661919
71,30122689.06619194
346,47919599.99999992
993,74424959.99999996
1017,74424959.99999996
1497,362576864.8160249
1533,11438885.168497468
1557,11438885.168497468
2228,6032014.063980034
2366,2378471.215739386
4114,35909482.4757853
4126,16519577.605455209
4162,14199365.10579826
4222,348759508.431788
4235,29854.187701736573
4350,0.0
4471,207782.91546192103
2,1, 1, 1, 0,13, 0.00,60.00,Holiday
11,222078170.6663555
47,88622815.562555
71,40703215.562555018
346,47919599.99999992
993,89913239.99999997
1017,89913239.99999997
1497,313402356.2047124
1533,11438885.168497468
1557,11438885.168497468
2228,7422368.774379947
2366,2322923.8512810126
4114,35897269.33478906
4126,16519577.605455209
4162,14199365.10579826
4222,299640547.1849339
4235,21098.067340065936
4350,0.0
4471,201378.92729143986
2,1, 1, 1, 0,14, 0.00,60.00,Holiday
11,221998332.38122196
47,88809111.32427994
71,40889511.32427996
346,47919599.99999992
993,89913239.99999997
1017,89913239.99999997
1497,280263221.66420689
1533,0.0
1557,0.0
2228,7423152.038353229
2366,2440364.146462477
4114,35634404.26257962
4126,16519577.605455209
4162,14199365.10579826
4222,277822857.51774439
4235,18340.715099244793
4350,0.0
4471,200084.04090998593
2,1, 1, 1, 0,15, 0.00,60.00,Holiday
11,220936324.13887529
47,88882918.73127637
71,40963318.731276389
346,47919599.99999992
993,89913239.99999997
1017,89913239.99999997
1497,267610915.7189569
1533,0.0
1557,0.0
2228,6456479.770562271
2366,2265422.9436758218
4114,35467340.656300399
4126,16519577.605455209
4162,14199365.10579826
4222,265345492.77528108
4235,16826.592090644102
4350,0.0
4471,199518.38864569844
2,1, 1, 1, 0,16, 0.00,60.00,Holiday
11,220402641.56396929
47,88916847.15711832
71,40997247.15711835
346,47919599.99999992
993,89913239.99999997
1017,89913239.99999997
1497,225477581.0057311
1533,0.0
1557,0.0
2228,7108714.502857522
2366,2421342.2857086488
4114,34250553.89534466
4126,16519577.605455209
4162,14199365.10579826
4222,223056238.72002245
4235,14415.170665741107
4350,0.0
4471,198870.8379830654
2,1, 1, 1, 0,17, 0.00,60.00,Holiday
11,220797005.05337034
47,89606015.86764741
71,41686415.86764742
346,47919599.99999992
993,89913239.99999997
1017,89913239.99999997
1497,234069707.64014597
1533,28597212.921243654
1557,28597212.921243654
2228,7504095.377818655
2366,2448932.650793167
4114,33561124.873156908
4126,16519577.605455209
4162,14199365.10579826
4222,203023562.06810916
4235,13819.507053106208
4350,0.0
4471,198709.42769430628
2,1, 1, 1, 0,18, 0.00,60.00,Holiday
11,194428302.31105937
47,78647111.99999994
71,30727511.99999999
346,47919599.99999992
993,74424959.99999996
1017,74424959.99999996
1497,281405106.39591047
1533,28597212.921243654
1557,28597212.921243654
2228,7263365.507422698
2366,2106254.127475892
4114,33870967.91637272
4126,16519577.605455209
4162,14199365.10579826
4222,250701639.34719087
4235,21019.022034935795
4350,0.0
4471,200877.86522915693
2,1, 1, 1, 0,19, 0.00,60.00,Holiday
11,242916344.63747243
47,106749035.99999982
71,15931835.999999995
346,90817199.99999984
993,101834279.99999984
1017,101834279.99999984
1497,218013844.7533776
1533,28597212.921243654
1557,28597212.921243654
2228,4733062.650971762
2366,2003357.5117128343
4114,29361167.5665179
4126,14487417.026481724
4162,14199365.10579826
4222,187413274.3204211
4235,30794.728653906153
4350,0.0
4471,208003.69132907509
2,1, 1, 1, 0,20, 0.00,60.00,Holiday
11,271597713.489692
47,124250678.9999998
71,4835078.999999999
346,119415599.9999998
993,118816469.99999982
1017,118816469.99999982
1497,4786681.437528878
1533,0.0
1557,0.0
2228,5748949.232507431
2366,2025353.3849540735
4114,22781615.257184864
4126,8458341.339612136
4162,14199365.10579826
4222,2761328.052574805
4235,0.0
4350,0.0
4471,0.0
2,1, 1, 1, 0,21, 0.00,60.00,Holiday
11,298050969.5926112
47,138549878.9999998
71,4835078.999999999
346,133714799.99999979
993,133115669.99999979
1017,133115669.99999979
1497,2691198.9280823648
1533,0.0
1557,0.0
2228,3684669.1139103116
2366,1680594.9419581847
4114,22700751.47870123
4126,8458341.339612136
4162,14199365.10579826
4222,1010603.9861241796
4235,0.0
4350,0.0
4471,0.0
2,1, 1, 1, 0,22, 0.00,60.00,Holiday
11,269275071.54987856
47,124250678.9999998
71,4835078.999999999
346,119415599.9999998
993,118816469.99999982
1017,118816469.99999982
1497,3223964.754650384
1533,0.0
1557,0.0
2228,3481377.067035955
2366,1648238.371949375
4114,22726545.48284286
4126,8458341.339612136
4162,14199365.10579826
4222,1575726.3827010093
4235,0.0
4350,0.0
4471,0.0
2,1, 1, 1, 0,23, 0.00,60.00,Holiday
11,210179691.94118247
47,95652278.99999984
71,4835078.999999999
346,90817199.99999984
993,90218069.99999985
1017,90218069.99999985
1497,1322970.4820917529
1533,0.0
1557,0.0
2228,1651636.495772324
2366,1322970.4820917529
4114,22657706.445410395
4126,8458341.339612136
4162,14199365.10579826
4222,0.0
4235,0.0
4350,0.0
4471,0.0
2,1, 1, 1, 0,24, 0.00,60.00,Holiday
11,124330624.27759993
47,52754678.99999992
71,4835078.999999999
346,47919599.99999992
993,47320469.999999929
1017,47320469.999999929
1497,1037409.0508265894
1533,0.0
1557,0.0
2228,1597768.832189594
2366,1037409.0508265894
4114,22657706.445410395
4126,8458341.339612136
4162,14199365.10579826
4222,0.0
4235,0.0
4350,0.0
4471,0.0
2,2, 1, 2, 0, 1, 0.00,60.00,Friday
11,66322005.61014674
47,24156278.99999996
71,4835078.999999999
346,19321199.999999968
993,18722069.99999997
1017,18722069.99999997
1497,1029594.0294741696
1533,0.0
1557,0.0
2228,785950.1647363931
2366,1029594.0294741696
4114,22657706.445410395
4126,8458341.339612136
4162,14199365.10579826
4222,0.0
4235,0.0
4350,0.0
4471,0.0
2,2, 1, 2, 0, 2, 0.00,60.00,Friday
11,66328418.446228478
47,24156278.99999996
71,4835078.999999999
346,19321199.999999968
993,18722069.99999997
1017,18722069.99999997
1497,1034376.2304893115
1533,0.0
1557,0.0
2228,792363.0008181334
2366,1034376.2304893115
4114,22657706.445410395
4126,8458341.339612136
4162,14199365.10579826
4222,0.0
4235,0.0
4350,0.0
4471,0.0
2,2, 1, 2, 0, 3, 0.00,60.00,Friday
11,67173846.03715636
47,24156278.99999996
71,4835078.999999999
346,19321199.999999968
993,18722069.99999997
1017,18722069.99999997
1497,2302051.0842843998
1533,0.0
1557,0.0
2228,1584699.327980068
2366,1034532.8648234619
4114,22710797.709176344
4126,8458341.339612136
4162,14199365.10579826
4222,1267518.2194609377
4235,0.0
4350,0.0
4471,0.0
2,2, 1, 2, 0, 4, 0.00,60.00,Friday
11,66870663.25621906
47,24156278.99999996
71,4835078.999999999
346,19321199.999999968
993,18722069.99999997
1017,18722069.99999997
1497,13918055.337934606
1533,0.0
1557,0.0
2228,785774.011293435
2366,1029570.638019105
4114,23206540.24492568
4126,8458341.339612136
4162,14199365.10579826
4222,12888484.699915503
4235,0.0
4350,0.0
4471,0.0
2,2, 1, 2, 0, 5, 0.00,60.00,Friday
11,67787097.1025477
47,24156278.99999996
71,4835078.999999999
346,19321199.999999968
993,18722069.99999997
1017,18722069.99999997
1497,35350311.654880467
1533,0.0
1557,0.0
2228,785888.405775606
2366,1029589.2182443343
4114,24122859.696772145
4126,8458341.339612136
4162,14199365.10579826
4222,34320722.43663613
4235,0.0
4350,0.0
4471,0.0
2,2, 1, 2, 0, 6, 0.00,60.00,Friday
11,128485093.52585325
47,53890838.99999992
71,5971238.999999999
346,47919599.99999992
993,47871269.999999929
1017,47871269.999999929
1497,91689893.95257746
1533,0.0
1557,0.0
2228,785991.3253183402
2366,1036313.7368668345
4114,25936993.200534956
4126,10490501.918585619
4162,14199365.10579826
4222,90653580.21571064
4235,0.0
4350,0.0
4471,0.0
2,2, 1, 2, 0, 7, 0.00,60.00,Friday
11,213030537.0516022
47,80361638.99999988
71,5971238.999999999
346,74390399.99999988
993,69320069.9999999
1017,69320069.9999999
1497,1072878262.6203096
1533,28597212.921243654
1557,28597212.921243654
2228,786020.696227025
2366,1272394.8325988469
4114,61558041.13659549
4126,23655657.341366125
4162,14199365.105798258
4222,1043008654.8664669
4235,88694.96936853416
4350,0.0
4471,916071.2494114152
2,2, 1, 2, 0, 8, 0.00,60.00,Friday
11,227283922.1324135
47,95754946.90930653
71,21364546.90930665
346,74390399.99999988
993,83139479.99999988
1017,83139479.99999988
1497,757895150.9489907
1533,28882321.086319496
1557,28882321.086319496
2228,3255849.666447566
2366,1707237.8476968217
4114,44716359.005350667
4126,16544772.237085812
4162,14199365.10579826
4222,727305592.0149744
4235,66579.25181280746
4350,0.0
4471,350707.29949607679
2,2, 1, 2, 0, 9, 0.00,60.00,Friday
11,282265839.95843699
47,123245673.0329594
71,48855273.03295952
346,74390399.99999988
993,112981499.99999987
1017,112981499.99999987
1497,574664459.1383237
1533,285108.16507584266
1557,285108.16507584266
2228,4711201.91863708
2366,2442059.2901172849
4114,41015203.17759371
4126,16519577.605455209
4162,14199365.10579826
4222,571937291.6831305
4235,50334.37346912826
4350,0.0
4471,261927.45577762789
2,2, 1, 2, 0,10, 0.00,60.00,Friday
11,339261161.08105298
47,149544905.52105106
71,75154505.5210511
346,74390399.99999988
993,143958059.99999995
1017,143958059.99999995
1497,448316753.94170489
1533,285108.16507584266
1557,285108.16507584266
2228,6262388.366502713
2366,2640338.0392621376
4114,39241949.469950977
4126,16563760.920173614
4162,14199365.10579826
4222,445391307.73736688
4235,32809.90239974538
4350,0.0
4471,221047.8211485563
2,2, 1, 2, 0,11, 0.00,60.00,Friday
11,297548689.50736007
47,128127258.30433974
71,75185658.30433975
346,52941599.9999999
993,122509259.99999996
1017,122509259.99999996
1497,397074264.3341624
1533,513194.69713651677
1557,513194.69713651677
2228,7858563.718134166
2366,3405041.5584192627
4114,38820800.18469691
4126,16615872.75745935
4162,14199365.10579826
4222,393156028.0786066
4235,25428.855005434554
4350,0.0
4471,207378.44518384589
2,2, 1, 2, 0,12, 0.00,60.00,Friday
11,300229554.2886161
47,128470218.41625315
71,75528618.4162532
346,52941599.9999999
993,122509259.99999996
1017,122509259.99999996
1497,323827936.219506
1533,11952079.865633984
1557,11952079.865633984
2228,11908971.295584668
2366,3954986.108564204
4114,37121482.45174237
4126,16840943.717386094
4162,14199365.10579826
4222,307920870.2453078
4235,18563.826949285736
4350,0.0
4471,201058.29808667839
2,2, 1, 2, 0,13, 0.00,60.00,Friday
11,296732683.2475248
47,126258418.05305113
71,73316818.05305116
346,52941599.9999999
993,122509259.99999996
1017,122509259.99999996
1497,277886044.2049761
1533,11952079.865633984
1557,11952079.865633984
2228,12409085.908762834
2366,4403295.378682528
4114,35337583.5419399
4126,16899451.893899137
4162,14199365.10579826
4222,261530668.96065957
4235,18025.930042114163
4350,0.0
4471,200309.8137289341
2,2, 1, 2, 0,14, 0.00,60.00,Friday
11,299245212.29593339
47,129100159.66204548
71,76158559.66204551
346,52941599.9999999
993,122509259.99999996
1017,122509259.99999996
1497,264472982.80399544
1533,513194.69713651677
1557,513194.69713651677
2228,12006475.527474853
2366,4448706.517420193
4114,35411434.92838227
4126,16954719.750628726
4162,14199365.10579826
4222,259511081.58943875
4235,17656.46884928306
4350,0.0
4471,200225.7091815586
2,2, 1, 2, 0,15, 0.00,60.00,Friday
11,297225747.9323392
47,128843244.46552034
71,75901644.46552035
346,52941599.9999999
993,122509259.99999996
1017,122509259.99999996
1497,250738679.02259545
1533,427662.2476137639
1557,427662.2476137639
2228,10102773.241331175
2366,3463132.8968833035
4114,35556032.943473998
4126,17036478.215222524
4162,14199365.10579826
4222,246847883.87809838
4235,15202.9695266371
4350,0.0
4471,199234.31248718274
2,2, 1, 2, 0,16, 0.00,60.00,Friday
11,291286822.5295112
47,125153515.09899767
71,72211915.09899768
346,52941599.9999999
993,122509259.99999996
1017,122509259.99999996
1497,202137739.15714086
1533,427662.2476137639
1557,427662.2476137639
2228,9094631.179965137
2366,3274431.0701241267
4114,34317890.11527397
4126,17397828.947157638
4162,14199365.10579826
4222,198435645.83940298
4235,12925.47647767234
4350,0.0
4471,198600.65879673055
2,2, 1, 2, 0,17, 0.00,60.00,Friday
11,295854378.5727914
47,129252086.32614191
71,76310486.32614193
346,52941599.9999999
993,122509259.99999996
1017,122509259.99999996
1497,247547048.93879647
1533,29024875.168857416
1557,29024875.168857416
2228,9535822.659747303
2366,3619926.78427596
4114,34342071.251670408
4126,17410235.917371595
4162,14199365.10579826
4222,214902246.9856631
4235,15798.217195383744
4350,0.0
4471,199340.11803648997
2,2, 1, 2, 0,18, 0.00,60.00,Friday
11,287407322.78257146
47,123776342.99999996
71,70834742.99999997
346,52941599.9999999
993,118102859.99999997
1017,118102859.99999997
1497,313570681.6799947
1533,29024875.168857416
1557,29024875.168857416
2228,9645913.601153739
2366,3110620.330181686
4114,35660166.507836248
4126,16994775.7199365
4162,14199365.10579826
4222,281435186.18095567
4235,20354.117384321034
4350,0.0
4471,201685.5561972924
2,2, 1, 2, 0,19, 0.00,60.00,Friday
11,319786037.5082809
47,143344268.99999986
71,47505068.99999999
346,95839199.99999984
993,135564839.99999989
1017,135564839.99999989
1497,267694278.48975755
1533,28597212.921243654
1557,28597212.921243654
2228,7947188.189986337
2366,2970481.337703048
4114,32701366.004622166
4126,16681610.663497892
4162,14199365.10579826
4222,236126584.23081083
4235,23715.120660524626
4350,0.0
4471,204659.19301205816
2,2, 1, 2, 0,20, 0.00,60.00,Friday
11,374882172.59170928
47,171942668.99999974
71,47505068.99999999
346,124437599.9999998
993,164163239.99999974
1017,164163239.99999974
1497,213462489.2827434
1533,0.0
1557,0.0
2228,7265993.782920403
2366,2475257.3449158149
4114,31279800.334830285
4126,16554201.006652572
4162,14199365.10579826
4222,210987231.9378276
4235,24662.506192683944
4350,0.0
4471,205806.96776623268
2,2, 1, 2, 0,21, 0.00,60.00,Friday
11,387391114.3061671
47,180270629.9999997
71,41533829.999999988
346,138736799.9999998
993,169616699.99999974
1017,169616699.99999974
1497,222224163.4636212
1533,0.0
1557,0.0
2228,6162177.2320427079
2366,2473475.855151308
4114,31106273.431264476
4126,16519577.605455209
4162,14199365.10579826
4222,219750687.6084699
4235,26827.158100001954
4350,0.0
4471,208506.4847603881
2,2, 1, 2, 0,22, 0.00,60.00,Friday
11,305884284.193486
47,143777915.9999998
71,19340315.999999998
346,124437599.9999998
993,132085079.9999998
1017,132085079.9999998
1497,78955817.93840808
1533,0.0
1557,0.0
2228,4643217.93751806
2366,2000447.8647898895
4114,25378070.25596823
4126,10490501.918585619
4162,14199365.10579826
4222,76955370.07361819
4235,0.0
4350,0.0
4471,0.0
2,2, 1, 2, 0,23, 0.00,60.00,Friday
11,214789996.5840664
47,96788438.99999984
71,5971238.999999999
346,90817199.99999984
993,90768869.99999985
1017,90768869.99999985
1497,62511793.57347092
1533,0.0
1557,0.0
2228,2542820.559682769
2366,1346323.8202761263
4114,24689867.02438388
4126,10490501.918585619
4162,14199365.10579826
4222,61165469.753194797
4235,0.0
4350,0.0
4471,0.0
2,2, 1, 2, 0,24, 0.00,60.00,Friday
11,126389526.40744487
47,52754678.99999992
71,4835078.999999999
346,47919599.99999992
993,47320469.999999929
1017,47320469.999999929
1497,62217571.712284188
1533,0.0
1557,0.0
2228,1624510.3830610323
2366,1052101.9590893887
4114,24689867.02438388
4126,10490501.918585619
4162,14199365.10579826
4222,61165469.753194797
4235,0.0
4350,0.0
4471,0.0
2,3, 1, 3, 0, 1, 0.00,60.00,Saturday
11,68035584.00844676
47,24156278.99999996
71,4835078.999999999
346,19321199.999999968
993,18722069.99999997
1017,18722069.99999997
1497,1330720.6355942207
1533,0.0
1557,0.0
2228,2499528.5630364057
2366,1330720.6355942207
4114,22657706.445410395
4126,8458341.339612136
4162,14199365.10579826
4222,0.0
4235,0.0
4350,0.0
4471,0.0
2,3, 1, 3, 0, 2, 0.00,60.00,Saturday
11,68194011.44195062
47,24156278.99999996
71,4835078.999999999
346,19321199.999999968
993,18722069.99999997
1017,18722069.99999997
1497,5657893.876147186
1533,0.0
1557,0.0
2228,2477645.13108914
2366,1325822.7354596
4114,22838017.31086152
4126,8458341.339612136
4162,14199365.10579826
4222,4332071.140687587
4235,0.0
4350,0.0
4471,0.0
2,3, 1, 3, 0, 3, 0.00,60.00,Saturday
11,68401409.61337719
47,24156278.99999996
71,4835078.999999999
346,19321199.999999968
993,18722069.99999997
1017,18722069.99999997
1497,30295263.723850665
1533,0.0
1557,0.0
2228,1624057.3794707705
2366,1312586.5957364564
4114,23899003.233906457
4126,8458341.339612136
4162,14199365.10579826
4222,28982677.128114206
4235,0.0
4350,0.0
4471,0.0
2,3, 1, 3, 0, 4, 0.00,60.00,Saturday
11,69069805.60775884
47,24156278.99999996
71,4835078.999999999
346,19321199.999999968
993,18722069.99999997
1017,18722069.99999997
1497,65801113.192557189
1533,0.0
1557,0.0
2228,798859.2190626997
2366,1039585.6368348522
4114,25392597.388696188
4126,8458341.339612136
4162,14199365.10579826
4222,64761527.555722329
4235,0.0
4350,0.0
4471,0.0
2,3, 1, 3, 0, 5, 0.00,60.00,Saturday
11,71314781.79987042
47,24156278.99999996
71,4835078.999999999
346,19321199.999999968
993,18722069.99999997
1017,18722069.99999997
1497,99947006.93879123
1533,0.0
1557,0.0
2228,1597530.5782209072
2366,1128935.8393110093
4114,26838902.221649574
4126,8458341.339612136
4162,14199365.10579826
4222,98818071.09948021
4235,0.0
4350,0.0
4471,0.0
2,3, 1, 3, 0, 6, 0.00,60.00,Saturday
11,129533850.03125075
47,52754678.99999992
71,4835078.999999999
346,47919599.99999992
993,47320469.999999929
1017,47320469.999999929
1497,156372929.65608419
1533,0.0
1557,0.0
2228,798876.7977715009
2366,1218334.4529363686
4114,28659824.233479315
4126,10490501.918585619
4162,14199365.10579826
4222,155154595.2031478
4235,0.0
4350,0.0
4471,0.0
2,3, 1, 3, 0, 7, 0.00,60.00,Saturday
11,219769245.46137757
47,80361638.99999988
71,5971238.999999999
346,74390399.99999988
993,69320069.9999999
1017,69320069.9999999
1497,1292456826.871911
1533,28597212.921243654
1557,28597212.921243654
2228,1610806.943185736
2366,1261009.5550676012
4114,67443101.43632636
4126,21830268.391292763
4162,14199365.10579826
4222,1262598604.3955999
4235,96582.17869161387
4350,0.0
4471,937045.9031740179
2,3, 1, 3, 0, 8, 0.00,60.00,Saturday
11,212001324.77407033
47,83800926.72033109
71,9410526.72033122
346,74390399.99999988
993,73192139.99999988
1017,73192139.99999988
1497,939548064.4778518
1533,28597212.921243654
1557,28597212.921243654
2228,4210463.779916171
2366,1754314.9807578058
4114,50237586.41729105
4126,16521838.642121364
4162,14199365.10579826
4222,909196536.5758503
4235,78401.23051856658
4350,0.0
4471,481806.6260135245
2,3, 1, 3, 0, 9, 0.00,60.00,Saturday
11,240427267.63556958
47,100676854.6363982
71,26286454.63639835
346,74390399.99999988
993,90883619.99999987
1017,90883619.99999987
1497,695014860.6815682
1533,285108.16507584266
1557,285108.16507584266
2228,5004837.092054572
2366,2045515.9107120219
4114,43440948.91371837
4126,16519577.605455209
4162,14199365.10579826
4222,692684236.6057803
4235,64674.86941093281
4350,0.0
4471,356332.12398755739
2,3, 1, 3, 0,10, 0.00,60.00,Saturday
11,276102259.9345733
47,118178927.11860773
71,43788527.11860786
346,74390399.99999988
993,114116039.99999988
1017,114116039.99999988
1497,503648187.9066063
1533,285108.16507584266
1557,285108.16507584266
2228,4829483.671252551
2366,2412803.6071595347
4114,38659363.32939748
4126,16563811.908131615
4162,14199365.10579826
4222,500950276.13437107
4235,46523.183343032964
4350,0.0
4471,271922.6319725451
2,3, 1, 3, 0,11, 0.00,60.00,Saturday
11,278800421.024364
47,116782230.60511342
71,63840630.60511344
346,52941599.9999999
993,115899659.99999997
1017,115899659.99999997
1497,399883110.2761067
1533,513194.69713651677
1557,513194.69713651677
2228,9081937.649272837
2366,2821584.5172060115
4114,36774230.403913419
4126,16654892.681027798
4162,14199365.105798258
4222,396548331.0617641
4235,34469.12705702152
4350,0.0
4471,227893.2390074156
2,3, 1, 3, 0,12, 0.00,60.00,Saturday
11,278447417.75046649
47,116857152.56278825
71,63915552.56278825
346,52941599.9999999
993,115899659.99999997
1017,115899659.99999997
1497,317547792.85564908
1533,11952079.865633984
1557,11952079.865633984
2228,10565653.140609879
2366,3377385.1740869574
4114,34888775.70634337
4126,16913776.026149129
4162,14199365.10579826
4222,302218327.81592807
4235,26666.55488267987
4350,0.0
4471,209509.7858424319
2,3, 1, 3, 0,13, 0.00,60.00,Saturday
11,273561639.88848176
47,113517647.93950053
71,60576047.93950054
346,52941599.9999999
993,114247259.99999997
1017,114247259.99999997
1497,260808277.29772444
1533,11952079.865633984
1557,11952079.865633984
2228,11603964.374424328
2366,3683609.4600145586
4114,33679412.14730344
4126,16983762.195313544
4162,14199365.10579826
4222,245172587.9720759
4235,22110.66384557628
4350,287625.1305301076
4471,203619.63287788066
2,3, 1, 3, 0,14, 0.00,60.00,Saturday
11,274830861.1063857
47,113180799.84266123
71,60239199.84266125
346,52941599.9999999
993,114247259.99999997
1017,114247259.99999997
1497,221511744.95179785
1533,513194.69713651677
1557,513194.69713651677
2228,12659328.47885412
2366,3698535.1394949646
4114,33196092.26411665
4126,17094233.91458819
4162,14199365.10579826
4222,217300015.11516638
4235,20413.678819313027
4350,1324919.987966365
4471,202046.85396810785
2,3, 1, 3, 0,15, 0.00,60.00,Saturday
11,272668305.54018697
47,113162497.29354179
71,60220897.29354182
346,52941599.9999999
993,114247259.99999997
1017,114247259.99999997
1497,187162699.18449939
1533,427662.2476137639
1557,427662.2476137639
2228,9783258.664390095
2366,3054530.013620653
4114,33175487.142181495
4126,17563542.23617971
4162,14199365.10579826
4222,183680506.92326493
4235,16989.20580544615
4350,2082714.7952458994
4471,200098.43902237837
2,3, 1, 3, 0,16, 0.00,60.00,Saturday
11,272013157.56404176
47,113409630.97942034
71,60468030.97942036
346,52941599.9999999
993,114247259.99999997
1017,114247259.99999997
1497,165257140.71377743
1533,427662.2476137639
1557,427662.2476137639
2228,9451034.628141514
2366,3009623.9698811385
4114,33128968.598803976
4126,17869831.278372226
4162,14199365.10579826
4222,161819854.49628253
4235,14282.38186635261
4350,1562983.743366051
4471,198997.23244368504
2,3, 1, 3, 0,17, 0.00,60.00,Saturday
11,275228904.41650709
47,118452784.37378162
71,65511184.373781647
346,52941599.9999999
993,114247259.99999997
1017,114247259.99999997
1497,203541177.7394098
1533,29024875.168857416
1557,29024875.168857416
2228,9106527.248227962
2366,3007235.086699612
4114,33111176.71378978
4126,17967928.26254587
4162,14199365.10579826
4222,171509067.48385275
4235,15215.204227734086
4350,96727.4963414003
4471,199213.38013870148
2,3, 1, 3, 0,18, 0.00,60.00,Saturday
11,267772612.48709614
47,111937382.99999996
71,64017782.99999998
346,47919599.99999992
993,113145659.99999997
1017,113145659.99999997
1497,246815079.68071337
1533,28597212.921243654
1557,28597212.921243654
2228,9277302.858064916
2366,2931656.484730159
4114,33191087.479456068
4126,17357155.244329737
4162,14199365.10579826
4222,215286210.2747395
4235,19772.813793144407
4350,0.0
4471,201406.33578217083
2,3, 1, 3, 0,19, 0.00,60.00,Saturday
11,295010671.23362848
47,128942549.99999987
71,38125349.999999988
346,90817199.99999984
993,125066699.99999988
1017,125066699.99999988
1497,256621512.94195155
1533,28597212.921243654
1557,28597212.921243654
2228,9295195.83755938
2366,2779848.0484641126
4114,31473261.07432801
4126,16519638.778340362
4162,14199365.10579826
4222,225244451.9722438
4235,25857.64429394064
4350,0.0
4471,207106.67744735315
2,3, 1, 3, 0,20, 0.00,60.00,Saturday
11,317192018.55552837
47,142745273.9999998
71,23329673.999999994
346,119415599.9999998
993,138176819.9999998
1017,138176819.9999998
1497,175555860.69385842
1533,0.0
1557,0.0
2228,7178592.711700465
2366,2329938.209393431
4114,28848835.718509243
4126,14487417.026481724
4162,14199365.10579826
4222,173225922.484465
4235,30306.594299137963
4350,0.0
4471,212189.5310198498
2,3, 1, 3, 0,21, 0.00,60.00,Saturday
11,344140774.67874446
47,157044473.99999977
71,23329673.999999994
346,133714799.99999979
993,152476019.99999977
1017,152476019.99999977
1497,205007199.18174378
1533,0.0
1557,0.0
2228,5612964.743423276
2366,2288479.66093428
4114,28751980.34940404
4126,14487417.026481724
4162,14199365.10579826
4222,202718719.5208095
4235,36087.480598579314
4350,0.0
4471,219248.10531889858
2,3, 1, 3, 0,22, 0.00,60.00,Saturday
11,284259180.8669381
47,127949597.9999998
71,8533997.999999999
346,119415599.9999998
993,122688539.9999998
1017,122688539.9999998
1497,274231161.6604083
1533,0.0
1557,0.0
2228,4167256.6840015335
2366,1709331.3222811465
4114,29154855.88710164
4126,14487417.026481724
4162,14199365.10579826
4222,272521830.3381272
4235,49280.38752202556
4350,0.0
4471,249649.9083131728