Program Version,EnergyPlus, Version 9.0.1-bb7ca4f0da, YMD=2019.12.18 15:51
1,5,Environment Title[],Latitude[deg],Longitude[deg],Time Zone[],Elevation[m]
2,8,Day of Simulation[],Month[],Day of Month[],DST Indicator[1=yes 0=no],Hour[],StartMinute[],EndMinute[],DayType
3,5,Cumulative Day of Simulation[],Month[],Day of Month[],DST Indicator[1=yes 0=no],DayType  ! When Daily Meters Requested
4,2,Cumulative Days of Simulation[],Month[]  ! When Monthly Meters Requested
5,1,Cumulative Days of Simulation[] ! When Run Period Meters Requested
6,1,Calendar Year of Simulation[] ! When Annual Meters Requested
46,1,InteriorLights:Electricity [J] !Hourly
10,1,Electricity:Facility [J] !Hourly
4121,1,Fans:Electricity [J] !Hourly
992,1,InteriorEquipment:Electricity [J] !Hourly
2227,1,WaterSystems:Electricity [J] !Hourly
4480,1,Pumps:Electricity [J] !Hourly
4243,1,Heating:Electricity [J] !Hourly
4354,1,Cooling:Electricity [J] !Hourly
1496,1,Gas:Facility [J] !Hourly
1532,1,InteriorEquipment:Gas [J] !Hourly
4230,1,Heating:Gas [J] !Hourly
2365,1,WaterSystems:Gas [J] !Hourly
1016,1,Receptacle:InteriorEquipment:Electricity [J] !Hourly
345,1,NonComplianceLtg:InteriorLights:Electricity [J] !Hourly
1556,1,Receptacle:InteriorEquipment:Gas [J] !Hourly
70,1,ComplianceLtg:InteriorLights:Electricity [J] !Hourly
4133,1,General:Fans:Electricity [J] !Hourly
4170,1,ProcessMotors:Fans:Electricity [J] !Hourly
End of Data Dictionary
1,SANTA-MARIA-PUBLIC-ARPT ANN CLG 0.4% CONDNS DB=>MCWB,  34.92,-120.47,  -8.00,  77.00
2,1, 8,21, 0, 1, 0.00,60.00,SummerDesignDay
10,619796770.344698
46,249737579.99999974
70,96701579.99999997
345,153035999.9999997
992,231449399.99999977
1016,231449399.99999977
1496,64391742.72308344
1532,57764642.17263899
1556,57764642.17263899
2227,19350421.85418087
2365,6627100.550444443
4121,225.63557002704665
4133,40.465808046174178
4170,146.49394504991597
4230,0.0
4243,0.0
4354,119259142.85494687
4480,0.0
2,1, 8,21, 0, 2, 0.00,60.00,SummerDesignDay
10,613920573.1873217
46,249737579.99999974
70,96701579.99999997
345,153035999.9999997
992,231449399.99999977
1016,231449399.99999977
1496,64468736.11602434
1532,57764642.17263899
1556,57764642.17263899
2227,19526515.527242207
2365,6704093.943385347
4121,224.20804534439282
4133,40.472533200265818
4170,146.49394504991597
4230,0.0
4243,0.0
4354,113206853.45203433
4480,0.0
2,1, 8,21, 0, 3, 0.00,60.00,SummerDesignDay
10,610425418.2049177
46,249737579.99999974
70,96701579.99999997
345,153035999.9999997
992,231449399.99999977
1016,231449399.99999977
1496,64652365.91694251
1532,57764642.17263899
1556,57764642.17263899
2227,20165574.076988684
2365,6887723.7443035249
4121,223.2729722514227
4133,40.4790332833256
4170,146.49394504991597
4230,0.0
4243,0.0
4354,109072640.85495678
4480,0.0
2,1, 8,21, 0, 4, 0.00,60.00,SummerDesignDay
10,605988150.6282272
46,249737579.99999974
70,96701579.99999997
345,153035999.9999997
992,231449399.99999977
1016,231449399.99999977
1496,64392307.75447656
1532,57764642.17263899
1556,57764642.17263899
2227,19350761.277747364
2365,6627665.581837572
4121,222.46699698084528
4133,40.48471644319645
4170,146.49394504991597
4230,0.0
4243,0.0
4354,105450186.88348279
4480,0.0
2,1, 8,21, 0, 5, 0.00,60.00,SummerDesignDay
10,604072955.8073211
46,249737579.99999974
70,96701579.99999997
345,153035999.9999997
992,231449399.99999977
1016,231449399.99999977
1496,64634257.411991488
1532,57764642.17263899
1556,57764642.17263899
2227,20340605.759519318
2365,6869615.239352493
4121,221.8060923558641
4133,40.488350518567518
4170,146.49394504991597
4230,0.0
4243,0.0
4354,102545148.24170953
4480,0.0
2,1, 8,21, 0, 6, 0.00,60.00,SummerDesignDay
10,618882176.3869133
46,249737579.99999974
70,96701579.99999997
345,153035999.9999997
992,231449399.99999977
1016,231449399.99999977
1496,64486703.52653648
1532,57764642.17263899
1556,57764642.17263899
2227,19350243.303939139
2365,6722061.353897489
4121,228.99296193913734
4133,46.48324608481275
4170,146.49394504991597
4230,0.0
4243,0.0
4354,118344724.09001205
4480,0.0
2,1, 8,21, 0, 7, 0.00,60.00,SummerDesignDay
10,677514581.6660117
46,249737579.99999974
70,96701579.99999997
345,153035999.9999997
992,231449399.99999977
1016,231449399.99999977
1496,64395308.50460005
1532,57764642.17263899
1556,57764642.17263899
2227,19746981.87404749
2365,6628019.141823617
4121,262.82362539706778
4133,70.17957652784509
4170,146.49394504991597
4230,2647.190137436973
4243,0.0
4354,176580356.96833898
4480,0.0
2,1, 8,21, 0, 8, 0.00,60.00,SummerDesignDay
10,694401864.3216312
46,249737579.99999974
70,96701579.99999997
345,153035999.9999997
992,231449399.99999977
1016,231449399.99999977
1496,64728588.20319865
1532,57764642.17263899
1556,57764642.17263899
2227,19945575.859587727
2365,6963946.03055966
4121,261.0290118977152
4133,58.24863014192724
4170,146.49394504991597
4230,0.0
4243,0.0
4354,193269047.4330315
4480,0.0
2,1, 8,21, 0, 9, 0.00,60.00,SummerDesignDay
10,724490621.0965421
46,249737579.99999974
70,96701579.99999997
345,153035999.9999997
992,231449399.99999977
1016,231449399.99999977
1496,64391965.22943046
1532,57764642.17263899
1556,57764642.17263899
2227,19350440.2843701
2365,6627323.056791472
4121,270.6936001388542
4133,57.28086037229142
4170,146.49394504991597
4230,0.0
4243,0.0
4354,223952930.1185718
4480,0.0
2,1, 8,21, 0,10, 0.00,60.00,SummerDesignDay
10,752896944.2856
46,249737579.99999974
70,96701579.99999997
345,153035999.9999997
992,231449399.99999977
1016,231449399.99999977
1496,64540066.86184695
1532,57764642.17263899
1556,57764642.17263899
2227,20341458.021350426
2365,6775424.689207961
4121,278.9124508939465
4133,57.9786918349531
4170,146.49394504991597
4230,0.0
4243,0.0
4354,251368227.35179875
4480,0.0
2,1, 8,21, 0,11, 0.00,60.00,SummerDesignDay
10,770922276.0653474
46,249737579.99999974
70,96701579.99999997
345,153035999.9999997
992,231449399.99999977
1016,231449399.99999977
1496,64580982.97110473
1532,57764642.17263899
1556,57764642.17263899
2227,19351024.434261186
2365,6816340.798465739
4121,283.6522181984358
4133,58.4542054813253
4170,146.49394504991597
4230,0.0
4243,0.0
4354,270383987.9788683
4480,0.0
2,1, 8,21, 0,12, 0.00,60.00,SummerDesignDay
10,785014182.6497722
46,249737579.99999974
70,96701579.99999997
345,153035999.9999997
992,231449399.99999977
1016,231449399.99999977
1496,64392427.918349359
1532,57764642.17263899
1556,57764642.17263899
2227,19965369.57446341
2365,6627785.745710373
4121,286.45391683834756
4133,58.81821418941533
4170,146.49394504991597
4230,0.0
4243,0.0
4354,283861546.6213918
4480,0.0
2,1, 8,21, 0,13, 0.00,60.00,SummerDesignDay
10,796706741.4960482
46,249737579.99999974
70,96701579.99999997
345,153035999.9999997
992,231449399.99999977
1016,231449399.99999977
1496,64705629.74357507
1532,57764642.17263899
1556,57764642.17263899
2227,19726032.239477546
2365,6940987.570936078
4121,289.4242391806949
4133,59.247021017289089
4170,146.49394504991597
4230,0.0
4243,0.0
4354,295793439.8323315
4480,0.0
2,1, 8,21, 0,14, 0.00,60.00,SummerDesignDay
10,810061607.2546553
46,249737579.99999974
70,96701579.99999997
345,153035999.9999997
992,231449399.99999977
1016,231449399.99999977
1496,64415180.01660974
1532,57764642.17263899
1556,57764642.17263899
2227,19350762.86725396
2365,6650537.843970754
4121,294.4700040228105
4133,60.17603001448229
4170,146.49394504991597
4230,0.0
4243,0.0
4354,309523569.9173972
4480,0.0
2,1, 8,21, 0,15, 0.00,60.00,SummerDesignDay
10,823883935.5377557
46,249737579.99999974
70,96701579.99999997
345,153035999.9999997
992,231449399.99999977
1016,231449399.99999977
1496,64445160.79024446
1532,57764642.17263899
1556,57764642.17263899
2227,20340771.8383684
2365,6680518.617605472
4121,300.96277824534237
4133,61.64197229442907
4170,146.49394504991597
4230,0.0
4243,0.0
4354,322355882.7366092
4480,0.0
2,1, 8,21, 0,16, 0.00,60.00,SummerDesignDay
10,824963574.8014574
46,249737579.99999974
70,96701579.99999997
345,153035999.9999997
992,231449399.99999977
1016,231449399.99999977
1496,64675972.6659752
1532,57764642.17263899
1556,57764642.17263899
2227,19350610.3275108
2365,6911330.493336207
4121,303.84051364012336
4133,62.4586054628464
4170,146.49394504991597
4230,0.0
4243,0.0
4354,324425680.6334329
4480,0.0
2,1, 8,21, 0,17, 0.00,60.00,SummerDesignDay
10,812644224.611423
46,249737579.99999974
70,96701579.99999997
345,153035999.9999997
992,231449399.99999977
1016,231449399.99999977
1496,64392240.89843368
1532,57764642.17263899
1556,57764642.17263899
2227,20185783.99914121
2365,6627598.725794694
4121,299.6240555014768
4133,62.06654410070554
4170,146.49394504991597
4230,0.0
4243,0.0
4354,311271160.9882264
4480,0.0
2,1, 8,21, 0,18, 0.00,60.00,SummerDesignDay
10,792227170.805707
46,249737579.99999974
70,96701579.99999997
345,153035999.9999997
992,231449399.99999977
1016,231449399.99999977
1496,64610671.472478378
1532,57764642.17263899
1556,57764642.17263899
2227,19505459.09133292
2365,6846029.299839383
4121,291.98156493120089
4133,60.38426614812427
4170,146.49394504991597
4230,0.0
4243,0.0
4354,291534439.7328088
4480,0.0
2,1, 8,21, 0,19, 0.00,60.00,SummerDesignDay
10,751735106.108239
46,249737579.99999974
70,96701579.99999997
345,153035999.9999997
992,231449399.99999977
1016,231449399.99999977
1496,64512544.468686077
1532,57764642.17263899
1556,57764642.17263899
2227,19371595.512390444
2365,6745602.339035687
4121,273.9645068026149
4133,57.18017833073053
4170,146.49394504991597
4230,2299.957011402697
4243,0.0
4354,251176256.63134168
4480,0.0
2,1, 8,21, 0,20, 0.00,60.00,SummerDesignDay
10,719668567.1532325
46,249737579.99999974
70,96701579.99999997
345,153035999.9999997
992,231449399.99999977
1016,231449399.99999977
1496,64431326.03682408
1532,57764642.17263899
1556,57764642.17263899
2227,20320420.66971524
2365,6627956.690138429
4121,259.7634121455489
4133,54.452058035846437
4170,146.49394504991597
4230,38727.174046659995
4243,0.0
4354,218160906.72010515
4480,0.0
2,1, 8,21, 0,21, 0.00,60.00,SummerDesignDay
10,697231938.2759558
46,249737579.99999974
70,96701579.99999997
345,153035999.9999997
992,231449399.99999977
1016,231449399.99999977
1496,64807871.15804042
1532,57764642.17263899
1556,57764642.17263899
2227,19350880.06171305
2365,6964030.60597698
4121,251.5216470385481
4133,52.735917091073208
4170,146.49394504991597
4230,79198.37942444747
4243,0.0
4354,196693826.69259564
4480,0.0
2,1, 8,21, 0,22, 0.00,60.00,SummerDesignDay
10,662935707.5987945
46,249737579.99999974
70,96701579.99999997
345,153035999.9999997
992,231449399.99999977
1016,231449399.99999977
1496,64392722.373844128
1532,57764642.17263899
1556,57764642.17263899
2227,20342397.87903857
2365,6628080.2012051329
4121,238.07530360176316
4133,43.96486770978911
4170,146.49394504991597
4230,0.0
4243,0.0
4354,161406091.64445219
4480,0.0
2,1, 8,21, 0,23, 0.00,60.00,SummerDesignDay
10,649270941.1364822
46,249737579.99999974
70,96701579.99999997
345,153035999.9999997
992,231449399.99999977
1016,231449399.99999977
1496,64515106.65695805
1532,57764642.17263899
1556,57764642.17263899
2227,19350129.42695393
2365,6750464.4843190549
4121,234.1749683284969
4133,43.66177597506304
4170,146.49394504991597
4230,0.0
4243,0.0
4354,148733597.5345598
4480,0.0
2,1, 8,21, 0,24, 0.00,60.00,SummerDesignDay
10,638827116.7445836
46,249737579.99999974
70,96701579.99999997
345,153035999.9999997
992,231449399.99999977
1016,231449399.99999977
1496,64606060.28508812
1532,57764642.17263899
1556,57764642.17263899
2227,19590049.904922397
2365,6841418.1124491379
4121,231.01724194500444
4133,43.43460122295038
4170,146.49394504991597
4230,0.0
4243,0.0
4354,138049855.8224193
4480,0.0
1,SANTA-MARIA-PUBLIC-ARPT ANN CLG 0.4% CONDNS DP=>MCDB,  34.92,-120.47,  -8.00,  77.00
2,1, 8,21, 0, 1, 0.00,60.00,SummerDesignDay
10,532418461.62908008
46,249737579.99999974
70,96701579.99999997
345,153035999.9999997
992,231449399.99999977
1016,231449399.99999977
1496,80358102.11025857
1532,57764642.17263899
1556,57764642.17263899
2227,19350421.85418087
2365,6627100.550444443
4121,205.32361813284749
4133,40.438304636819058
4170,146.49394504991597
4230,15966359.387175136
4243,0.0
4354,31880854.45128109
4480,0.0
2,1, 8,21, 0, 2, 0.00,60.00,SummerDesignDay
10,528749247.2682304
46,249737579.99999974
70,96701579.99999997
345,153035999.9999997
992,231449399.99999977
1016,231449399.99999977
1496,93924918.19212738
1532,57764642.17263899
1556,57764642.17263899
2227,19526515.527242207
2365,6704093.943385347
4121,203.18139544197786
4133,40.44336419504211
4170,146.49394504991597
4230,29456182.076103044
4243,0.0
4354,28035548.559592714
4480,0.0
2,1, 8,21, 0, 3, 0.00,60.00,SummerDesignDay
10,526744372.3138133
46,249737579.99999974
70,96701579.99999997
345,153035999.9999997
992,231449399.99999977
1016,231449399.99999977
1496,102630461.11219689
1532,57764642.17263899
1556,57764642.17263899
2227,20165574.076988684
2365,6887723.7443035249
4121,201.7145611466429
4133,40.44635747908636
4170,146.49394504991597
4230,37978095.19525438
4243,0.0
4354,25391616.522263305
4480,0.0
2,1, 8,21, 0, 4, 0.00,60.00,SummerDesignDay
10,523830775.8832348
46,249737579.99999974
70,96701579.99999997
345,153035999.9999997
992,231449399.99999977
1016,231449399.99999977
1496,110931673.08689027
1532,57764642.17263899
1556,57764642.17263899
2227,19350761.277747364
2365,6627665.581837572
4121,200.5454417455667
4133,40.44787685305326
4170,146.49394504991597
4230,46539365.3324137
4243,0.0
4354,23292834.06004571
4480,0.0
2,1, 8,21, 0, 5, 0.00,60.00,SummerDesignDay
10,523286362.4868808
46,249737579.99999974
70,96701579.99999997
345,153035999.9999997
992,231449399.99999977
1016,231449399.99999977
1496,117625642.94021759
1532,57764642.17263899
1556,57764642.17263899
2227,20340605.759519318
2365,6869615.239352493
4121,199.69239614813743
4133,40.44916270708359
4170,146.49394504991597
4230,52991385.52822612
4243,0.0
4354,21758577.034965334
4480,0.0
2,1, 8,21, 0, 6, 0.00,60.00,SummerDesignDay
10,535164739.71543166
46,249737579.99999974
70,96701579.99999997
345,153035999.9999997
992,231449399.99999977
1016,231449399.99999977
1496,105908800.84320347
1532,57764642.17263899
1556,57764642.17263899
2227,19350543.804943094
2365,6721866.4784395829
4121,204.08546161766206
4133,43.8508102397096
4170,146.49394504991597
4230,41422292.1921249
4243,0.0
4354,34627011.825027
4480,0.0
2,1, 8,21, 0, 7, 0.00,60.00,SummerDesignDay
10,580053274.9200075
46,249737579.99999974
70,96701579.99999997
345,153035999.9999997
992,231449399.99999977
1016,231449399.99999977
1496,68281032.10329364
1532,57764642.17263899
1556,57764642.17263899
2227,19746644.194790447
2365,6627742.815280044
4121,222.99960817907528
4133,52.71157548315392
4170,146.49394504991597
4230,3888647.1153746095
4243,0.0
4354,79119427.72560878
4480,0.0
2,1, 8,21, 0, 8, 0.00,60.00,SummerDesignDay
10,605805249.8161576
46,249737579.99999974
70,96701579.99999997
345,153035999.9999997
992,231449399.99999977
1016,231449399.99999977
1496,65434439.27823572
1532,57764642.17263899
1556,57764642.17263899
2227,19945539.53405949
2365,6963944.212725233
4121,230.86545975108087
4133,48.993502758097
4170,146.49394504991597
4230,705852.8928714913
4243,0.0
4354,104672499.41663835
4480,0.0
2,1, 8,21, 0, 9, 0.00,60.00,SummerDesignDay
10,646421328.2690184
46,249737579.99999974
70,96701579.99999997
345,153035999.9999997
992,231449399.99999977
1016,231449399.99999977
1496,64422870.195352468
1532,57764642.17263899
1556,57764642.17263899
2227,19350660.09347468
2365,6627359.260101593
4121,243.83961727507478
4133,49.534745310367728
4170,146.49394504991597
4230,30868.762611883572
4243,0.0
4354,145883444.33592633
4480,0.0
2,1, 8,21, 0,10, 0.00,60.00,SummerDesignDay
10,687606961.7168608
46,249737579.99999974
70,96701579.99999997
345,153035999.9999997
992,231449399.99999977
1016,231449399.99999977
1496,64540504.48380739
1532,57764642.17263899
1556,57764642.17263899
2227,20341457.35743151
2365,6775862.311168401
4121,254.5654869730013
4133,50.632046255290749
4170,146.49394504991597
4230,0.0
4243,0.0
4354,186078269.79394216
4480,0.0
2,1, 8,21, 0,11, 0.00,60.00,SummerDesignDay
10,713985404.4902877
46,249737579.99999974
70,96701579.99999997
345,153035999.9999997
992,231449399.99999977
1016,231449399.99999977
1496,64723382.12041001
1532,57764642.17263899
1556,57764642.17263899
2227,19351024.729919178
2365,6815902.736355749
4121,261.23700275310196
4133,51.41787418342378
4170,146.49394504991597
4230,142837.21141527259
4243,0.0
4354,213447138.5233658
4480,0.0
2,1, 8,21, 0,12, 0.00,60.00,SummerDesignDay
10,730939198.1093418
46,249737579.99999974
70,96701579.99999997
345,153035999.9999997
992,231449399.99999977
1016,231449399.99999977
1496,65015177.541915278
1532,57764642.17263899
1556,57764642.17263899
2227,19964991.938400259
2365,6627822.518297639
4121,265.03006162954036
4133,52.02385219852043
4170,146.49394504991597
4230,622712.8509786483
4243,0.0
4354,229786961.14087994
4480,0.0
2,1, 8,21, 0,13, 0.00,60.00,SummerDesignDay
10,743482945.4427517
46,249737579.99999974
70,96701579.99999997
345,153035999.9999997
992,231449399.99999977
1016,231449399.99999977
1496,65602246.40167004
1532,57764642.17263899
1556,57764642.17263899
2227,19726378.962853817
2365,6941349.958478685
4121,268.3549311695521
4133,52.58029404813543
4170,146.49394504991597
4230,896254.2705523643
4243,0.0
4354,242569318.12496666
4480,0.0
2,1, 8,21, 0,14, 0.00,60.00,SummerDesignDay
10,757142616.018383
46,249737579.99999974
70,96701579.99999997
345,153035999.9999997
992,231449399.99999977
1016,231449399.99999977
1496,65466913.48199963
1532,57764642.17263899
1556,57764642.17263899
2227,19350762.665695996
2365,6650175.193850703
4121,273.4754541848097
4133,53.44735980520096
4170,146.49394504991597
4230,1052096.1155099364
4243,0.0
4354,256604599.87723283
4480,0.0
2,1, 8,21, 0,15, 0.00,60.00,SummerDesignDay
10,771029160.2266076
46,249737579.99999974
70,96701579.99999997
345,153035999.9999997
992,231449399.99999977
1016,231449399.99999977
1496,65564788.76586893
1532,57764642.17263899
1556,57764642.17263899
2227,20340771.505512716
2365,6680880.712070402
4121,279.9687452540832
4133,54.71755204219887
4170,146.49394504991597
4230,1119265.8811595436
4243,0.0
4354,269501128.7523497
4480,0.0
2,1, 8,21, 0,16, 0.00,60.00,SummerDesignDay
10,771456829.8106155
46,249737579.99999974
70,96701579.99999997
345,153035999.9999997
992,231449399.99999977
1016,231449399.99999977
1496,65857547.74978684
1532,57764642.17263899
1556,57764642.17263899
2227,19350610.02818142
2365,6910967.88174069
4121,282.79022643221699
4133,55.476426961875237
4170,146.49394504991597
4230,1181937.6954071655
4243,0.0
4354,270918956.9922077
4480,0.0
2,1, 8,21, 0,17, 0.00,60.00,SummerDesignDay
10,758641651.966845
46,249737579.99999974
70,96701579.99999997
345,153035999.9999997
992,231449399.99999977
1016,231449399.99999977
1496,65689536.08466264
1532,57764642.17263899
1556,57764642.17263899
2227,20185437.849672766
2365,6627599.715553424
4121,278.4920824331319
4133,55.19795990861163
4170,146.49394504991597
4230,1297294.1964702267
4243,0.0
4354,257268955.62508977
4480,0.0
2,1, 8,21, 0,18, 0.00,60.00,SummerDesignDay
10,737622455.7207139
46,249737579.99999974
70,96701579.99999997
345,153035999.9999997
992,231449399.99999977
1016,231449399.99999977
1496,66083207.21360577
1532,57764642.17263899
1556,57764642.17263899
2227,19505805.39066363
2365,6846391.596136219
4121,271.10149548432426
4133,53.903247360135157
4170,146.49394504991597
4230,1472173.4448305623
4243,0.0
4354,236929399.22855468
4480,0.0
2,1, 8,21, 0,19, 0.00,60.00,SummerDesignDay
10,695131316.6150773
46,249737579.99999974
70,96701579.99999997
345,153035999.9999997
992,231449399.99999977
1016,231449399.99999977
1496,66249636.744197357
1532,57764642.17263899
1556,57764642.17263899
2227,19371249.21754733
2365,6745239.4967153039
4121,253.03005600048858
4133,51.3802631106451
4170,146.49394504991597
4230,1739755.074843058
4243,0.0
4354,194572834.36747403
4480,0.0
2,1, 8,21, 0,20, 0.00,60.00,SummerDesignDay
10,658262593.656363
46,249737579.99999974
70,96701579.99999997
345,153035999.9999997
992,231449399.99999977
1016,231449399.99999977
1496,66411349.98283837
1532,57764642.17263899
1556,57764642.17263899
2227,20320765.828677004
2365,6627957.678326901
4121,238.67772025527277
4133,49.19056607311741
4170,146.49394504991597
4230,2018750.131872487
4243,0.0
4354,156754609.14996583
4480,0.0
2,1, 8,21, 0,21, 0.00,60.00,SummerDesignDay
10,629160716.6952922
46,249737579.99999974
70,96701579.99999997
345,153035999.9999997
992,231449399.99999977
1016,231449399.99999977
1496,66979605.0355276
1532,57764642.17263899
1556,57764642.17263899
2227,19350880.39475759
2365,6964029.341658003
4121,229.86189953825608
4133,47.79433044757593
4170,146.49394504991597
4230,2250933.521230607
4243,0.0
4354,128622626.43863479
4480,0.0
2,1, 8,21, 0,22, 0.00,60.00,SummerDesignDay
10,586718691.3362738
46,249737579.99999974
70,96701579.99999997
345,153035999.9999997
992,231449399.99999977
1016,231449399.99999977
1496,64392521.41965753
1532,57764642.17263899
1556,57764642.17263899
2227,20342410.719054104
2365,6627879.247018536
4121,219.22678080026294
4133,42.867734367391
4170,146.49394504991597
4230,0.0
4243,0.0
4354,85189081.39043896
4480,0.0
2,1, 8,21, 0,23, 0.00,60.00,SummerDesignDay
10,567058866.3101592
46,249737579.99999974
70,96701579.99999997
345,153035999.9999997
992,231449399.99999977
1016,231449399.99999977
1496,64515944.13091963
1532,57764642.17263899
1556,57764642.17263899
2227,19350195.815012214
2365,6751301.958280636
4121,214.38846467737646
4133,42.58621997635757
4170,146.49394504991597
4230,0.0
4243,0.0
4354,66521476.10668237
4480,0.0
2,1, 8,21, 0,24, 0.00,60.00,SummerDesignDay
10,551513683.4066959
46,249737579.99999974
70,96701579.99999997
345,153035999.9999997
992,231449399.99999977
1016,231449399.99999977
1496,65708996.22110766
1532,57764642.17263899
1556,57764642.17263899
2227,19589924.891852648
2365,6840503.808681444
4121,210.39605266152126
4133,42.38155130207872
4170,146.49394504991597
4230,1103850.2397872257
4243,0.0
4354,50736568.118790607
4480,0.0
1,SANTA-MARIA-PUBLIC-ARPT ANN HTG 99.6% CONDNS DB,  34.92,-120.47,  -8.00,  77.00
2,1, 1,21, 0, 1, 0.00,60.00,WinterDesignDay
10,72211.11358659742
46,0.0
70,0.0
345,0.0
992,0.0
1016,0.0
1496,534252660.1482725
1532,0.0
1556,0.0
2227,72000.0
2365,579679.1997937226
4121,211.11358659735158
4133,40.388487008804037
4170,146.49394504991597
4230,533672980.9484788
4243,0.0
4354,0.0
4480,0.0
2,1, 1,21, 0, 2, 0.00,60.00,WinterDesignDay
10,72220.61908711569
46,0.0
70,0.0
345,0.0
992,0.0
1016,0.0
1496,616677376.4391085
1532,0.0
1556,0.0
2227,72000.0
2365,833483.936473899
4121,220.61908711562308
4133,40.388487008804037
4170,146.49394504991597
4230,615843892.5026345
4243,0.0
4354,0.0
4480,0.0
2,1, 1,21, 0, 3, 0.00,60.00,WinterDesignDay
10,72227.40509776812
46,0.0
70,0.0
345,0.0
992,0.0
1016,0.0
1496,677876546.3184586
1532,0.0
1556,0.0
2227,72000.0
2365,833372.2904352646
4121,227.4050977680567
4133,40.388487008804037
4170,146.49394504991597
4230,677043174.0280234
4243,0.0
4354,0.0
4480,0.0
2,1, 1,21, 0, 4, 0.00,60.00,WinterDesignDay
10,72232.87367111087
46,0.0
70,0.0
345,0.0
992,0.0
1016,0.0
1496,737180595.1047943
1532,0.0
1556,0.0
2227,72000.0
2365,833413.0588825962
4121,232.87367111080364
4133,40.388487008804037
4170,146.49394504991597
4230,736347182.0459117
4243,0.0
4354,0.0
4480,0.0
2,1, 1,21, 0, 5, 0.00,60.00,WinterDesignDay
10,72236.85563904906
46,0.0
70,0.0
345,0.0
992,0.0
1016,0.0
1496,782320903.8036721
1532,0.0
1556,0.0
2227,72000.0
2365,833295.4676707607
4121,236.8556390489734
4133,40.388487008804037
4170,146.49394504991597
4230,781487608.3360013
4243,0.0
4354,0.0
4480,0.0
2,1, 1,21, 0, 6, 0.00,60.00,WinterDesignDay
10,5188697.854569745
46,0.0
70,0.0
345,0.0
992,0.0
1016,0.0
1496,984151425.2419267
1532,0.0
1556,0.0
2227,72000.0
2365,670272.861079026
4121,261.7751095842855
4133,62.72117976971521
4170,146.49394504991597
4230,983481152.3808476
4243,0.0
4354,5116436.079460161
4480,0.0
2,1, 1,21, 0, 7, 0.00,60.00,WinterDesignDay
10,8272937.934335759
46,0.0
70,0.0
345,0.0
992,0.0
1016,0.0
1496,1871743054.1946564
1532,0.0
1556,0.0
2227,72000.0
2365,742901.7442733727
4121,383.82568973438029
4133,102.13842413993486
4170,146.49394504991597
4230,1871000152.4503828
4243,0.0
4354,8200554.108646024
4480,0.0
2,1, 1,21, 0, 8, 0.00,60.00,WinterDesignDay
10,72308.45030451268
46,0.0
70,0.0
345,0.0
992,0.0
1016,0.0
1496,1579953912.8054264
1532,0.0
1556,0.0
2227,72000.0
2365,833457.1266401312
4121,308.4503045125957
4133,43.662811723256229
4170,146.49394504991597
4230,1579120455.6787863
4243,0.0
4354,0.0
4480,0.0
2,1, 1,21, 0, 9, 0.00,60.00,WinterDesignDay
10,72290.98093082964
46,0.0
70,0.0
345,0.0
992,0.0
1016,0.0
1496,1416121022.8653188
1532,0.0
1556,0.0
2227,72000.0
2365,833339.9828144467
4121,290.9809308295504
4133,41.54132486783837
4170,146.49394504991597
4230,1415287682.8825045
4243,0.0
4354,0.0
4480,0.0
2,1, 1,21, 0,10, 0.00,60.00,WinterDesignDay
10,72282.24862868941
46,0.0
70,0.0
345,0.0
992,0.0
1016,0.0
1496,1331748199.136755
1532,0.0
1556,0.0
2227,72000.0
2365,833380.9691497852
4121,282.24862868936108
4133,40.8851992052555
4170,146.49394504991597
4230,1330914818.1676052
4243,0.0
4354,0.0
4480,0.0
2,1, 1,21, 0,11, 0.00,60.00,WinterDesignDay
10,72277.03218804194
46,0.0
70,0.0
345,0.0
992,0.0
1016,0.0
1496,1280378022.4388459
1532,0.0
1556,0.0
2227,72000.0
2365,833291.9320705235
4121,277.03218804186738
4133,40.690584726897089
4170,146.49394504991597
4230,1279544730.5067754
4243,0.0
4354,0.0
4480,0.0
2,1, 1,21, 0,12, 0.00,60.00,WinterDesignDay
10,72273.56214638464
46,0.0
70,0.0
345,0.0
992,0.0
1016,0.0
1496,1246053853.4132939
1532,0.0
1556,0.0
2227,72000.0
2365,579602.1905551648
4121,273.5621463845665
4133,40.58979067726135
4170,146.49394504991597
4230,1245474251.2227386
4243,0.0
4354,0.0
4480,0.0
2,1, 1,21, 0,13, 0.00,60.00,WinterDesignDay
10,72271.16394168016
46,0.0
70,0.0
345,0.0
992,0.0
1016,0.0
1496,1222772818.3222237
1532,0.0
1556,0.0
2227,72000.0
2365,833383.7069331415
4121,271.1639416800848
4133,40.52837506417899
4170,146.49394504991597
4230,1221939434.6152905
4243,0.0
4354,0.0
4480,0.0
2,1, 1,21, 0,14, 0.00,60.00,WinterDesignDay
10,72269.46624327934
46,0.0
70,0.0
345,0.0
992,0.0
1016,0.0
1496,1206033059.7085789
1532,0.0
1556,0.0
2227,72000.0
2365,833425.1506061461
4121,269.4662432792914
4133,40.487915532819929
4170,146.49394504991597
4230,1205199634.5579727
4243,0.0
4354,0.0
4480,0.0
2,1, 1,21, 0,15, 0.00,60.00,WinterDesignDay
10,72268.2687856957
46,0.0
70,0.0
345,0.0
992,0.0
1016,0.0
1496,1194374133.299602
1532,0.0
1556,0.0
2227,72000.0
2365,833321.018790826
4121,268.2687856956375
4133,40.46118337740513
4170,146.49394504991597
4230,1193540812.280811
4243,0.0
4354,0.0
4480,0.0
2,1, 1,21, 0,16, 0.00,60.00,WinterDesignDay
10,72267.40392208859
46,0.0
70,0.0
345,0.0
992,0.0
1016,0.0
1496,1185850140.8829656
1532,0.0
1556,0.0
2227,72000.0
2365,833348.6896967818
4121,267.4039220885221
4133,40.44249676850602
4170,146.49394504991597
4230,1185016792.1932688
4243,0.0
4354,0.0
4480,0.0
2,1, 1,21, 0,17, 0.00,60.00,WinterDesignDay
10,72266.7741766953
46,0.0
70,0.0
345,0.0
992,0.0
1016,0.0
1496,1179594355.9069572
1532,0.0
1556,0.0
2227,72000.0
2365,833388.8538609425
4121,266.7741766952223
4133,40.429491198405788
4170,146.49394504991597
4230,1178760967.053096
4243,0.0
4354,0.0
4480,0.0
2,1, 1,21, 0,18, 0.00,60.00,WinterDesignDay
10,72266.31615703194
46,0.0
70,0.0
345,0.0
992,0.0
1016,0.0
1496,1174879699.3271204
1532,0.0
1556,0.0
2227,72000.0
2365,579580.6944049599
4121,266.3161570318859
4133,40.42130178784045
4170,146.49394504991597
4230,1174300118.6327153
4243,0.0
4354,0.0
4480,0.0
2,1, 1,21, 0,19, 0.00,60.00,WinterDesignDay
10,72265.9949606632
46,0.0
70,0.0
345,0.0
992,0.0
1016,0.0
1496,1171946802.707452
1532,0.0
1556,0.0
2227,72000.0
2365,833354.0437504966
4121,265.9949606631368
4133,40.4172339441996
4170,146.49394504991597
4230,1171113448.6637016
4243,0.0
4354,0.0
4480,0.0
2,1, 1,21, 0,20, 0.00,60.00,WinterDesignDay
10,72265.75916176451
46,0.0
70,0.0
345,0.0
992,0.0
1016,0.0
1496,1169578798.801602
1532,0.0
1556,0.0
2227,72000.0
2365,833392.9936576269
4121,265.75916176444556
4133,40.41545355844548
4170,146.49394504991597
4230,1168745405.8079446
4243,0.0
4354,0.0
4480,0.0
2,1, 1,21, 0,21, 0.00,60.00,WinterDesignDay
10,72265.58124045245
46,0.0
70,0.0
345,0.0
992,0.0
1016,0.0
1496,1167802058.6921983
1532,0.0
1556,0.0
2227,72000.0
2365,833433.6227775642
4121,265.5812404523674
4133,40.41304873050903
4170,146.49394504991597
4230,1166968625.0694206
4243,0.0
4354,0.0
4480,0.0
2,1, 1,21, 0,22, 0.00,60.00,WinterDesignDay
10,846510.1096812844
46,0.0
70,0.0
345,0.0
992,0.0
1016,0.0
1496,965922285.1220107
1532,0.0
1556,0.0
2227,846244.6878850828
2365,833468.9695574403
4121,265.42179620145955
4133,40.38848700880403
4170,146.49394504991597
4230,965088816.1524533
4243,0.0
4354,0.0
4480,0.0
2,1, 1,21, 0,23, 0.00,60.00,WinterDesignDay
10,72187.28143766824
46,0.0
70,0.0
345,0.0
992,0.0
1016,0.0
1496,407984767.3590024
1532,0.0
1556,0.0
2227,72000.0
2365,773634.7408583765
4121,187.28143766816886
4133,40.40232983324064
4170,146.49394504991597
4230,407211132.61814406
4243,0.0
4354,0.0
4480,0.0
2,1, 1,21, 0,24, 0.00,60.00,WinterDesignDay
10,72197.05431514421
46,0.0
70,0.0
345,0.0
992,0.0
1016,0.0
1496,511737640.81060966
1532,0.0
1556,0.0
2227,72000.0
2365,639480.0942882584
4121,197.05431514413005
4133,40.566479911032789
4170,146.49394504991597
4230,511098160.7163214
4243,0.0
4354,0.0
4480,0.0
1,SANTA-MARIA-PUBLIC-ARPT AUG CLG 0.4% CONDNS DB=>MCWB,  34.92,-120.47,  -8.00,  77.00
2,1, 8,21, 0, 1, 0.00,60.00,SummerDesignDay
10,612458576.1657013
46,249737579.99999974
70,96701579.99999997
345,153035999.9999997
992,231449399.99999977
1016,231449399.99999977
1496,64391742.72308344
1532,57764642.17263899
1556,57764642.17263899
2227,19350421.85418087
2365,6627100.550444443
4121,223.35124468897119
4133,40.45915126040757
4170,146.49394504991597
4230,0.0
4243,0.0
4354,111920950.96027541
4480,0.0
2,1, 8,21, 0, 2, 0.00,60.00,SummerDesignDay
10,605925771.7155072
46,249737579.99999974
70,96701579.99999997
345,153035999.9999997
992,231449399.99999977
1016,231449399.99999977
1496,64468736.11602434
1532,57764642.17263899
1556,57764642.17263899
2227,19526515.527242207
2365,6704093.943385347