Program Version,EnergyPlus, Version 9.0.1-bb7ca4f0da, YMD=2019.12.18 16:18
1,5,Environment Title[],Latitude[deg],Longitude[deg],Time Zone[],Elevation[m]
2,8,Day of Simulation[],Month[],Day of Month[],DST Indicator[1=yes 0=no],Hour[],StartMinute[],EndMinute[],DayType
3,5,Cumulative Day of Simulation[],Month[],Day of Month[],DST Indicator[1=yes 0=no],DayType  ! When Daily Meters Requested
4,2,Cumulative Days of Simulation[],Month[]  ! When Monthly Meters Requested
5,1,Cumulative Days of Simulation[] ! When Run Period Meters Requested
6,1,Calendar Year of Simulation[] ! When Annual Meters Requested
1533,1,InteriorEquipment:Gas [J] !Hourly
1017,1,Receptacle:InteriorEquipment:Electricity [J] !Hourly
4480,1,Pumps:Electricity [J] !Hourly
11,1,Electricity:Facility [J] !Hourly
47,1,InteriorLights:Electricity [J] !Hourly
2366,1,WaterSystems:Gas [J] !Hourly
993,1,InteriorEquipment:Electricity [J] !Hourly
4122,1,Fans:Electricity [J] !Hourly
4244,1,Heating:Electricity [J] !Hourly
4355,1,Cooling:Electricity [J] !Hourly
2228,1,WaterSystems:Electricity [J] !Hourly
1497,1,Gas:Facility [J] !Hourly
4231,1,Heating:Gas [J] !Hourly
4134,1,General:Fans:Electricity [J] !Hourly
1557,1,Receptacle:InteriorEquipment:Gas [J] !Hourly
71,1,ComplianceLtg:InteriorLights:Electricity [J] !Hourly
346,1,NonComplianceLtg:InteriorLights:Electricity [J] !Hourly
4171,1,ProcessMotors:Fans:Electricity [J] !Hourly
End of Data Dictionary
1,RIVERSIDE_722869_CZ2010,  33.95,-117.44,  -8.00, 253.00
2,1, 1, 1, 0, 1, 0.00,60.00,Holiday
11,55708139.80040647
47,24156278.99999996
71,4835078.999999999
346,19321199.999999968
993,18722069.99999997
1017,18722069.99999997
1497,1040191.9099648902
1533,0.0
1557,0.0
2228,796653.8367907754
2366,1040191.9099648902
4122,12033136.96361573
4134,8488078.333418433
4171,3545058.6301972984
4231,0.0
4244,0.0
4355,0.0
4480,0.0
2,1, 1, 1, 0, 2, 0.00,60.00,Holiday
11,56504552.88234089
47,24156278.99999996
71,4835078.999999999
346,19321199.999999968
993,18722069.99999997
1017,18722069.99999997
1497,1039979.2087341712
1533,0.0
1557,0.0
2228,1593066.918725198
2366,1039979.2087341712
4122,12033136.96361573
4134,8488078.333418433
4171,3545058.6301972984
4231,0.0
4244,0.0
4355,0.0
4480,0.0
2,1, 1, 1, 0, 3, 0.00,60.00,Holiday
11,56511020.48460852
47,24156278.99999996
71,4835078.999999999
346,19321199.999999968
993,18722069.99999997
1017,18722069.99999997
1497,1326991.581705734
1533,0.0
1557,0.0
2228,1593069.5359403084
2366,1186137.0453284949
4122,12039601.948668246
4134,8488078.333418433
4171,3545058.6301972984
4231,140854.53637723908
4244,0.0
4355,0.0
4480,0.0
2,1, 1, 1, 0, 4, 0.00,60.00,Holiday
11,55938796.6444261
47,24156278.99999996
71,4835078.999999999
346,19321199.999999968
993,18722069.99999997
1017,18722069.99999997
1497,6560615.542114465
1533,0.0
1557,0.0
2228,790328.031329054
2366,1148501.8251697764
4122,12270119.613097074
4134,8488078.333418433
4171,3545058.6301972984
4231,5412113.716944689
4244,0.0
4355,0.0
4480,0.0
2,1, 1, 1, 0, 5, 0.00,60.00,Holiday
11,59338413.49687756
47,24156278.99999996
71,4835078.999999999
346,19321199.999999968
993,18722069.99999997
1017,18722069.99999997
1497,22412415.976404769
1533,0.0
1557,0.0
2228,1580727.8799719597
2366,1035044.3969420361
4122,14870120.484960977
4134,10417466.740525663
4171,3545058.6301972984
4231,21377371.579462734
4244,56.461166879837637
4355,0.0
4480,9159.670777774834
2,1, 1, 1, 0, 6, 0.00,60.00,Holiday
11,120988303.56259215
47,52754678.99999992
71,4835078.999999999
346,47919599.99999992
993,47320469.999999929
1017,47320469.999999929
1497,125987643.38117489
1533,0.0
1557,0.0
2228,790562.3877776024
2366,1041621.0545414003
4122,20075351.43177222
4134,15270960.832104575
4171,3545058.6301972984
4231,124946022.3266335
4244,17027.462919725975
4355,0.0
4480,30213.28012263874
2,1, 1, 1, 0, 7, 0.00,60.00,Holiday
11,189133137.52391608
47,74200284.150284
71,4831884.150284121
346,69368399.9999999
993,68769269.9999999
1017,68769269.9999999
1497,671796068.4487906
1533,28597212.921243654
1557,28597212.921243654
2228,1593142.9650552336
2366,1279873.3087158055
4122,44525764.30949056
4134,15577908.987780724
4171,3545058.6301972984
4231,641918982.2188311
4244,14086.17271516972
4355,0.0
4480,30589.926371098434
2,1, 1, 1, 0, 8, 0.00,60.00,Holiday
11,179022567.5873729
47,74161406.22225259
71,4793006.222252714
346,69368399.9999999
993,68769269.9999999
1017,68769269.9999999
1497,464066601.8414298
1533,28597212.921243654
1557,28597212.921243654
2228,2446951.1374939216
2366,1075343.7955244745
4122,33601909.13371673
4134,13946336.198670509
4171,3545058.6301972984
4231,434394045.12466177
4244,13563.786361168944
4355,0.0
4480,29467.307548520086
2,1, 1, 1, 0, 9, 0.00,60.00,Holiday
11,196437620.63891638
47,77702684.5819369
71,8334284.581937031
346,69368399.9999999
993,72641339.99999988
1017,72641339.99999988
1497,797411373.5625056
1533,0.0
1557,0.0
2228,1657922.0854588049
2366,1331131.472452975
4122,42633281.265070948
4134,26187023.301950724
4171,3545058.6301972984
4231,796080242.0900526
4244,117452.21327764652
4355,0.0
4480,1684940.4931721022
2,1, 1, 1, 0,10, 0.00,60.00,Holiday
11,184003645.1102112
47,77505659.1905349
71,8137259.190535033
346,69368399.9999999
993,72641339.99999988
1017,72641339.99999988
1497,577453384.887428
1533,0.0
1557,0.0
2228,3370717.147766223
2366,1365035.2292506363
4122,29883038.04964052
4134,16832053.199157258
4171,3545058.6301972984
4231,576088349.6581774
4244,81242.07618995704
4355,0.0
4480,521648.6460796085
2,1, 1, 1, 0,11, 0.00,60.00,Holiday
11,182483542.66906096
47,76188313.19464
71,28268713.194640049
346,47919599.99999992
993,74424959.99999996
1017,74424959.99999996
1497,396909675.5404818
1533,0.0
1557,0.0
2228,4905658.352252284
2366,2005805.2153230389
4122,26825606.403100045
4134,16725321.723243619
4171,3545058.6301972984
4231,394903870.3251588
4244,50014.56106063217
4355,0.0
4480,88990.15800794991
2,1, 1, 1, 0,12, 0.00,60.00,Holiday
11,178410147.65390767
47,75738797.72426495
71,27819197.724264996
346,47919599.99999992
993,74424959.99999996
1017,74424959.99999996
1497,231536319.7585469
1533,11438885.168497468
1557,11438885.168497468
2228,5911272.9755799439
2366,2197991.025135343
4122,22267181.925374386
4134,16725321.723243619
4171,3545058.6301972984
4231,217899443.56491409
4244,31932.670432383653
4355,0.0
4480,36002.35825600619
2,1, 1, 1, 0,13, 0.00,60.00,Holiday
11,203295921.5112363
47,85791188.24721478
71,37871588.24721481
346,47919599.99999992
993,89913239.99999997
1017,89913239.99999997
1497,79820927.88280952
1533,11438885.168497468
1557,11438885.168497468
2228,7080589.306733815
2366,2275224.142285703
4122,20469508.698301846
4134,16725321.723243619
4171,3545058.6301972984
4231,66106818.57202634
4244,10960.045308179298
4355,0.0
4480,30435.213677699863
2,1, 1, 1, 0,14, 0.00,60.00,Holiday
11,204135203.91479845
47,86666642.94539365
71,38747042.9453937
346,47919599.99999992
993,89913239.99999997
1017,89913239.99999997
1497,23264993.555328516
1533,0.0
1557,0.0
2228,7211941.256123612
2366,2434675.6663090635
4122,20270380.353440919
4134,16725321.723243619
4171,3545058.6301972984
4231,20830317.889019453
4244,3729.4587465667607
4355,35091.449817844004
4480,34178.451275834435
2,1, 1, 1, 0,15, 0.00,60.00,Holiday
11,207738718.72956375
47,88319131.94630854
71,40399531.94630856
346,47919599.99999992
993,89913239.99999997
1017,89913239.99999997
1497,15088788.963323093
1533,0.0
1557,0.0
2228,6058409.418799808
2366,2099463.3342441867
4122,20270380.353440919
4134,16725321.723243619
4171,3545058.6301972984
4231,12989325.629078906
4244,2325.608007399089
4355,3140147.963097841
4480,35083.43990925765
2,1, 1, 1, 0,16, 0.00,60.00,Holiday
11,209838824.28085206
47,88034642.05560117
71,40115042.05560118
346,47919599.99999992
993,89913239.99999997
1017,89913239.99999997
1497,13931833.499985874
1533,0.0
1557,0.0
2228,6774070.315637927
2366,2385868.4932032695
4122,20270380.353440919
4134,16725321.723243619
4171,3545058.6301972984
4231,11545965.006782605
4244,2067.18881639334
4355,4809181.066423758
4480,35243.30093189271
2,1, 1, 1, 0,17, 0.00,60.00,Holiday
11,210375730.0486585
47,89564834.55211813
71,41645234.552118148
346,47919599.99999992
993,89913239.99999997
1017,89913239.99999997
1497,41743563.2213968
1533,28597212.921243654
1557,28597212.921243654
2228,6615348.169366533
2366,2321485.5025857037
4122,20270380.353440919
4134,16725321.723243619
4171,3545058.6301972984
4231,10824864.797567442
4244,1938.0830823024424
4355,3974664.5606295408
4480,35324.330021094545
2,1, 1, 1, 0,18, 0.00,60.00,Holiday
11,181471795.43959258
47,78647111.99999994
71,30727511.99999999
346,47919599.99999992
993,74424959.99999996
1017,74424959.99999996
1497,67319894.21115215
1533,28597212.921243654
1557,28597212.921243654
2228,7068033.265834519
2366,2178214.260385431
4122,20270380.353440919
4134,16725321.723243619
4171,3545058.6301972984
4231,36544467.029523078
4244,6542.918976465562
4355,1022347.7654845786
4480,32419.135856165078
2,1, 1, 1, 0,19, 0.00,60.00,Holiday
11,231574986.2320983
47,106749035.99999982
71,15931835.999999995
346,90817199.99999984
993,101834279.99999984
1017,101834279.99999984
1497,125446592.60086748
1533,28597212.921243654
1557,28597212.921243654
2228,4634941.570177556
2366,1709052.1323872777
4122,18310968.87252285
4134,14765910.242325552
4171,3545058.6301972984
4231,95140327.54723653
4244,17033.917994564526
4355,0.0
4480,28725.871403517125
2,1, 1, 1, 0,20, 0.00,60.00,Holiday
11,259820557.78496776
47,124250678.9999998
71,4835078.999999999
346,119415599.9999998
993,118816469.99999982
1017,118816469.99999982
1497,2001768.801295558
1533,0.0
1557,0.0
2228,4720271.821352241
2366,2001768.801295558
4122,12033136.96361573
4134,8488078.333418433
4171,3545058.6301972984
4231,0.0
4244,0.0
4355,0.0
4480,0.0
2,1, 1, 1, 0,21, 0.00,60.00,Holiday
11,288170662.5623765
47,138549878.9999998
71,4835078.999999999
346,133714799.99999979
993,133115669.99999979
1017,133115669.99999979
1497,1669029.267183445
1533,0.0
1557,0.0
2228,4471976.598761033
2366,1669029.267183445
4122,12033136.96361573
4134,8488078.333418433
4171,3545058.6301972984
4231,0.0
4244,0.0
4355,0.0
4480,0.0
2,1, 1, 1, 0,22, 0.00,60.00,Holiday
11,257670405.66378132
47,124250678.9999998
71,4835078.999999999
346,119415599.9999998
993,118816469.99999982
1017,118816469.99999982
1497,1639042.103688062
1533,0.0
1557,0.0
2228,2570119.700165797
2366,1639042.103688062
4122,12033136.96361573
4134,8488078.333418433
4171,3545058.6301972984
4231,0.0
4244,0.0
4355,0.0
4480,0.0
2,1, 1, 1, 0,23, 0.00,60.00,Holiday
11,200350570.6840663
47,95652278.99999984
71,4835078.999999999
346,90817199.99999984
993,90218069.99999985
1017,90218069.99999985
1497,1102570.1388461278
1533,0.0
1557,0.0
2228,2447084.720450778
2366,1102570.1388461278
4122,12033136.96361573
4134,8488078.333418433
4171,3545058.6301972984
4231,0.0
4244,0.0
4355,0.0
4480,0.0
2,1, 1, 1, 0,24, 0.00,60.00,Holiday
11,112898677.69672607
47,52754678.99999992
71,4835078.999999999
346,47919599.99999992
993,47320469.999999929
1017,47320469.999999929
1497,1246983.264648575
1533,0.0
1557,0.0
2228,790391.733110365
2366,1246983.264648575
4122,12033136.96361573
4134,8488078.333418433
4171,3545058.6301972984
4231,0.0
4244,0.0
4355,0.0
4480,0.0
2,2, 1, 2, 0, 1, 0.00,60.00,Friday
11,55689899.93343809
47,24156278.99999996
71,4835078.999999999
346,19321199.999999968
993,18722069.99999997
1017,18722069.99999997
1497,1027684.6131893618
1533,0.0
1557,0.0
2228,778413.9698223851
2366,1027684.6131893618
4122,12033136.96361573
4134,8488078.333418433
4171,3545058.6301972984
4231,0.0
4244,0.0
4355,0.0
4480,0.0
2,2, 1, 2, 0, 2, 0.00,60.00,Friday
11,56480227.282120499
47,24156278.99999996
71,4835078.999999999
346,19321199.999999968
993,18722069.99999997
1017,18722069.99999997
1497,1032117.7661644024
1533,0.0
1557,0.0
2228,1568741.3185048039
2366,1032117.7661644024
4122,12033136.96361573
4134,8488078.333418433
4171,3545058.6301972984
4231,0.0
4244,0.0
4355,0.0
4480,0.0
2,2, 1, 2, 0, 3, 0.00,60.00,Friday
11,55695842.1826244
47,24156278.99999996
71,4835078.999999999
346,19321199.999999968
993,18722069.99999997
1017,18722069.99999997
1497,1032221.8345114268
1533,0.0
1557,0.0
2228,784356.2190086999
2366,1032221.8345114268
4122,12033136.96361573
4134,8488078.333418433
4171,3545058.6301972984
4231,0.0
4244,0.0
4355,0.0
4480,0.0
2,2, 1, 2, 0, 4, 0.00,60.00,Friday
11,55698389.383493069
47,24156278.99999996
71,4835078.999999999
346,19321199.999999968
993,18722069.99999997
1017,18722069.99999997
1497,1214283.8562674784
1533,0.0
1557,0.0
2228,778312.9913969577
2366,1027511.7476882995
4122,12041727.392096134
4134,8488078.333418433
4171,3545058.6301972984
4231,186772.10857917879
4244,0.0
4355,0.0
4480,0.0
2,2, 1, 2, 0, 5, 0.00,60.00,Friday
11,55790688.43932745
47,24156278.99999996
71,4835078.999999999
346,19321199.999999968
993,18722069.99999997
1017,18722069.99999997
1497,3309064.805368974
1533,0.0
1557,0.0
2228,778367.3110517948
2366,1027484.4322970047
4122,12133972.128275685
4134,8488078.333418433
4171,3545058.6301972984
4231,2281580.373071969
4244,0.0
4355,0.0
4480,0.0
2,2, 1, 2, 0, 6, 0.00,60.00,Friday
11,119865506.34179265
47,53890838.99999992
71,5971238.999999999
346,47919599.99999992
993,47871269.999999929
1017,47871269.999999929
1497,146711938.13727654
1533,0.0
1557,0.0
2228,778473.3789583177
2366,1034108.7048608074
4122,17213348.29788246
4134,13619828.200072177
4171,3545058.6301972984
4231,145677829.43241573
4244,27273.031842305118
4355,0.0
4480,84302.6331095903
2,2, 1, 2, 0, 7, 0.00,60.00,Friday
11,194494175.71786628
47,80361638.99999988
71,5971238.999999999
346,74390399.99999988
993,69320069.9999999
1017,69320069.9999999
1497,820822320.2615197
1533,28597212.921243654
1557,28597212.921243654
2228,778311.4249998067
2366,1031967.0196582484
4122,42480024.112651009
4134,25015077.523665269
4171,3545058.6301972984
4231,791193140.3206177
4244,109686.34284731627
4355,0.0
4480,1444444.8373683086
2,2, 1, 2, 0, 8, 0.00,60.00,Friday
11,210592269.17740018
47,95904582.48301804
71,21514182.483018169
346,74390399.99999988
993,83139479.99999988
1017,83139479.99999988
1497,536516038.9799394
1533,28882321.086319496
1557,28882321.086319496
2228,3399696.396017153
2366,1673523.6559024223
4122,27750824.25968885
4134,16767475.190292864
4171,3545058.6301972984
4231,505960194.2377175
4244,74854.59689836076
4355,0.0
4480,322831.44177774406
2,2, 1, 2, 0, 9, 0.00,60.00,Friday
11,268490658.14719316
47,125386929.09241613
71,50996529.09241626
346,74390399.99999988
993,112981499.99999987
1017,112981499.99999987
1497,361035383.2361689
1533,285108.16507584266
1557,285108.16507584266
2228,4555800.731828514
2366,2412564.943172178
4122,25442713.382493825
4134,16725321.723243619
4171,3545058.6301972984
4231,358337710.12792089
4244,49160.46061031305
4355,0.0
4480,74554.47984439433
2,2, 1, 2, 0,10, 0.00,60.00,Friday
11,325390033.600481
47,150921711.16248603
71,76531311.16248608
346,74390399.99999988
993,143958059.99999995
1017,143958059.99999995
1497,261154975.62456007
1533,285108.16507584266
1557,285108.16507584266
2228,5946576.468789584
2366,2555557.5917759805
4122,24496955.374367589
4134,16743000.58729626
4171,3545058.630197298
4231,258314309.86770828
4244,30649.564833084747
4355,0.0
4480,36081.03000472665
2,2, 1, 2, 0,11, 0.00,60.00,Friday
11,284201855.6194985
47,129385401.55384714
71,76443801.55384717
346,52941599.9999999
993,122509259.99999996
1017,122509259.99999996
1497,222922298.32220734
1533,513194.69713651677
1557,513194.69713651677
2228,7603127.473177513
2366,3058191.269263219
4122,24652422.979679217
4134,16739320.369402763
4171,3545058.6301972984
4231,219350912.35580764
4244,22156.05464953577
4355,0.0
4480,29487.558145040362
2,2, 1, 2, 0,12, 0.00,60.00,Friday
11,285874339.0245685
47,129205563.25627288
71,76263963.25627291
346,52941599.9999999
993,122509259.99999996
1017,122509259.99999996
1497,189795532.29024173
1533,11952079.865633984
1557,11952079.865633984
2228,10482015.412376583
2366,3914036.7008518369
4122,23630399.48820485
4134,16871150.573033167
4171,3545058.6301972984
4231,173929415.7237559
4244,18564.376432365163
4355,0.0
4480,28536.49128183631
2,2, 1, 2, 0,13, 0.00,60.00,Friday
11,287662910.13747826
47,129140348.07770197
71,76198748.07770199
346,52941599.9999999
993,122509259.99999996
1017,122509259.99999996
1497,202909921.69766668
1533,11952079.865633984
1557,11952079.865633984
2228,11996645.646310987
2366,4391561.114721716
4122,23968281.833696054
4134,16920665.992519145
4171,3545058.6301972984
4231,186566280.717311
4244,19803.110861868812
4355,0.0
4480,28571.468907265633
2,2, 1, 2, 0,14, 0.00,60.00,Friday
11,288907292.28034868
47,129374212.86158991
71,76432612.86158994
346,52941599.9999999
993,122509259.99999996
1017,122509259.99999996
1497,246082728.4057101
1533,513194.69713651677
1557,513194.69713651677
2228,11656400.319014872
2366,4025436.5354478426
4122,25312554.03997466
4134,16960558.965396733
4171,3545058.6301972984
4231,241544097.17312569
4244,24714.576336470516
4355,0.0
4480,30150.483432741108
2,2, 1, 2, 0,15, 0.00,60.00,Friday
11,287493760.35355368
47,129542769.34391684
71,76601169.34391687
346,52941599.9999999
993,122509259.99999996
1017,122509259.99999996
1497,264436845.54717333
1533,427662.2476137639
1557,427662.2476137639
2228,9608517.141962903
2366,3428649.9942307297
4122,25774990.413544917
4134,16986470.114168765
4171,3545058.6301972984
4231,260580533.30532886
4244,26558.588422560013
4355,0.0
4480,31664.86570646205
2,2, 1, 2, 0,16, 0.00,60.00,Friday
11,285267687.6608586
47,129434544.08649394
71,76492944.08649397
346,52941599.9999999
993,122509259.99999996
1017,122509259.99999996
1497,246376346.08181686
1533,427662.2476137639
1557,427662.2476137639
2228,7940331.993876721
2366,3156272.9009391285
4122,25326712.08496103
4134,17173981.508824797
4171,3545058.6301972984
4231,242792410.93326397
4244,25690.936535464352
4355,0.0
4480,31148.558991474616
2,2, 1, 2, 0,17, 0.00,60.00,Friday
11,286960393.21070316
47,130495015.7270489
71,77553415.72704894
346,52941599.9999999
993,122509259.99999996
1017,122509259.99999996
1497,249940254.10104055
1533,29024875.168857416
1557,29024875.168857416
2228,9181024.496359047
2366,3212846.0622123915
4122,24722005.29820622
4134,17125394.99176588
4171,3545058.6301972984
4231,217702532.8699707
4244,23305.832449526984
4355,0.0
4480,29781.856639469006
2,2, 1, 2, 0,18, 0.00,60.00,Friday
11,274910089.6688046
47,123776342.99999996
71,70834742.99999997
346,52941599.9999999
993,118102859.99999997
1017,118102859.99999997
1497,256491094.54358978
1533,29024875.168857416
1557,29024875.168857416
2228,8627028.938385074
2366,3214008.7609822584
4122,24348299.655258106
4134,16946064.307473575
4171,3545058.6301972984
4231,224252210.61375005
4244,25310.332048634784
4355,0.0
4480,30247.743112756456
2,2, 1, 2, 0,19, 0.00,60.00,Friday
11,308449307.25278016
47,143344268.99999986
71,47505068.99999999
346,95839199.99999984
993,135564839.99999989
1017,135564839.99999989
1497,215166288.79111839
1533,28597212.921243654
1557,28597212.921243654
2228,8296231.638951134
2366,2724041.0009369545
4122,21179282.503641543
4134,16777089.694861642
4171,3545058.6301972984
4231,183845034.86893777
4244,30554.531893437663
4355,0.0
4480,34129.57829426281
2,2, 1, 2, 0,20, 0.00,60.00,Friday
11,362621095.1065843
47,171942668.99999974
71,47505068.99999999
346,124437599.9999998
993,164163239.99999974
1017,164163239.99999974
1497,173749084.63205726
1533,0.0
1557,0.0
2228,6059816.419729648
2366,2443142.0776351878
4122,20388699.506151629
4134,16725321.723243619
4171,3545058.6301972984
4231,171305942.55442206
4244,31329.026652655164
4355,0.0
4480,35341.1540507012
2,2, 1, 2, 0,21, 0.00,60.00,Friday
11,376260927.8860811
47,180270629.9999997
71,41533829.999999988
346,138736799.9999998
993,169616699.99999974
1017,169616699.99999974
1497,174037561.93154798
1533,0.0
1557,0.0
2228,6000655.664101303
2366,2440998.3798532898
4122,20305414.992295207
4134,16725321.723243619
4171,3545058.6301972984
4231,171596563.5516947
4244,31767.87398252771
4355,0.0
4480,35759.35570234062
2,2, 1, 2, 0,22, 0.00,60.00,Friday
11,294476056.54288199
47,143777915.9999998
71,19340315.999999998
346,124437599.9999998
993,132085079.9999998
1017,132085079.9999998
1497,60991463.2945791
1533,0.0
1557,0.0
2228,4552455.23027326
2366,1700936.745359834
4122,14020338.585540597
4134,10447489.814336496
4171,3545058.6301972984
4231,59290526.549219269
4244,10507.620753427076
4355,0.0
4480,29759.10631495304
2,2, 1, 2, 0,23, 0.00,60.00,Friday
11,204097482.02621637
47,96788438.99999984
71,5971238.999999999
346,90817199.99999984
993,90768869.99999985
1017,90768869.99999985
1497,59832495.64652881
1533,0.0
1557,0.0
2228,2507350.6929482
2366,1411909.5954674306
4122,13992548.444533794
4134,10447489.814336496
4171,3545058.6301972984
4231,58420586.05106138
4244,10459.617889102848
4355,0.0
4480,29814.270845450446
2,2, 1, 2, 0,24, 0.00,60.00,Friday
11,115713873.02666104
47,52754678.99999992
71,4835078.999999999
346,47919599.99999992
993,47320469.999999929
1017,47320469.999999929
1497,61213536.757123429
1533,0.0
1557,0.0
2228,1605734.615367064
2366,1238945.8809204694
4122,13992548.444533794
4134,10447489.814336496
4171,3545058.6301972984
4231,59974590.87620296
4244,10737.84681091812
4355,0.0
4480,29703.11994928009
2,3, 1, 3, 0, 1, 0.00,60.00,Saturday
11,57378368.64694966
47,24156278.99999996
71,4835078.999999999
346,19321199.999999968
993,18722069.99999997
1017,18722069.99999997
1497,1327651.6508951025
1533,0.0
1557,0.0
2228,2466882.6833339605
2366,1327651.6508951025
4122,12033136.96361573
4134,8488078.333418433
4171,3545058.6301972984
4231,0.0
4244,0.0
4355,0.0
4480,0.0
2,3, 1, 3, 0, 2, 0.00,60.00,Saturday
11,56542724.73166235
47,24156278.99999996
71,4835078.999999999
346,19321199.999999968
993,18722069.99999997
1017,18722069.99999997
1497,1321404.792660313
1533,0.0
1557,0.0
2228,1631238.7680466478
2366,1321404.792660313
4122,12033136.96361573
4134,8488078.333418433
4171,3545058.6301972984
4231,0.0
4244,0.0
4355,0.0
4480,0.0
2,3, 1, 3, 0, 3, 0.00,60.00,Saturday
11,56517227.47621389
47,24156278.99999996
71,4835078.999999999
346,19321199.999999968
993,18722069.99999997
1017,18722069.99999997
1497,1046835.5881411071
1533,0.0
1557,0.0
2228,1605741.5125981798
2366,1046835.5881411071
4122,12033136.96361573
4134,8488078.333418433
4171,3545058.6301972984
4231,0.0
4244,0.0
4355,0.0
4480,0.0
2,3, 1, 3, 0, 4, 0.00,60.00,Saturday
11,56492385.608881939
47,24156278.99999996
71,4835078.999999999
346,19321199.999999968
993,18722069.99999997
1017,18722069.99999997
1497,1037474.2072390693
1533,0.0
1557,0.0
2228,1580899.645266233
2366,1037474.2072390693
4122,12033136.96361573
4134,8488078.333418433
4171,3545058.6301972984
4231,0.0
4244,0.0
4355,0.0
4480,0.0
2,3, 1, 3, 0, 5, 0.00,60.00,Saturday
11,55701834.19340454
47,24156278.99999996
71,4835078.999999999
346,19321199.999999968
993,18722069.99999997
1017,18722069.99999997
1497,1296702.2015601309
1533,0.0
1557,0.0
2228,790348.2297888411
2366,1296702.2015601309
4122,12033136.96361573
4134,8488078.333418433
4171,3545058.6301972984
4231,0.0
4244,0.0
4355,0.0
4480,0.0
2,3, 1, 3, 0, 6, 0.00,60.00,Saturday
11,116606629.16895184
47,52754678.99999992
71,4835078.999999999
346,47919599.99999992
993,47320469.999999929
1017,47320469.999999929
1497,129317026.74194169
1533,0.0
1557,0.0
2228,1580940.752378369
2366,1043744.8171324034
4122,14847627.763620379
4134,11302569.133423079
4171,3545058.6301972984
4231,128273281.92480929
4244,24184.771215513894
4355,0.0
4480,78726.88173760995
2,3, 1, 3, 0, 7, 0.00,60.00,Saturday
11,190649911.83961166
47,80361638.99999988
71,5971238.999999999
346,74390399.99999988
993,69320069.9999999
1017,69320069.9999999
1497,764679252.1461797
1533,28597212.921243654
1557,28597212.921243654
2228,1593178.6541290642
2366,1242342.9493408304
4122,38328979.123495567
4134,20852384.284952
4171,3545058.630197298
4231,734839696.275595
4244,96937.29105183973
4355,0.0
4480,949107.7709352564
2,3, 1, 3, 0, 8, 0.00,60.00,Saturday
11,187159391.81489597
47,83620577.50159049
71,9230177.501590616
346,74390399.99999988
993,73192139.99999988
1017,73192139.99999988
1497,521143996.8436064
1533,28597212.921243654
1557,28597212.921243654
2228,3546168.026479378
2366,1757418.9660416982
4122,26415267.25642695
4134,16725321.723243619
4171,3545058.6301972984
4231,490789364.95632109
4244,78551.78530907605
4355,0.0
4480,306687.2450901186
2,3, 1, 3, 0, 9, 0.00,60.00,Saturday
11,220325604.16124226
47,101373680.98326472
71,26983280.98326485
346,74390399.99999988
993,90883619.99999987
1017,90883619.99999987
1497,365110264.5101395
1533,285108.16507584266
1557,285108.16507584266
2228,4594816.059815282
2366,2026178.068103323
4122,23278357.445623328
4134,16725321.723243619
4171,3545058.6301972984
4231,362798978.2769604
4244,62114.63865616328
4355,0.0
4480,133015.03388279843
2,3, 1, 3, 0,10, 0.00,60.00,Saturday
11,258746396.77582646
47,117931552.3151332
71,43541152.31513332
346,74390399.99999988
993,114116039.99999988
1017,114116039.99999988
1497,226082072.5937991
1533,285108.16507584266
1557,285108.16507584266
2228,5047067.827386218
2366,2087583.3338050156
4122,21567950.293014874
4134,16742669.78577622
4171,3545058.630197298
4231,223709381.09491826
4244,37056.81183384592
4355,0.0
4480,46729.528458311754
2,3, 1, 3, 0,11, 0.00,60.00,Saturday
11,261755561.98390509
47,116379206.10812593
71,63437606.10812594
346,52941599.9999999
993,115899659.99999997
1017,115899659.99999997
1497,148370259.2992201
1533,513194.69713651677
1557,513194.69713651677
2228,8402785.067258578
2366,2903220.3032865265
4122,21021054.540408028
4134,16795689.235848115
4171,3545058.630197298
4231,144953844.29879705
4244,23126.461869596067
4355,0.0
4480,29729.806242991544
2,3, 1, 3, 0,12, 0.00,60.00,Saturday
11,263749833.02518086
47,116552828.22243536
71,63611228.22243536
346,52941599.9999999
993,115899659.99999997
1017,115899659.99999997
1497,103861777.25757453
1533,11952079.865633984
1557,11952079.865633984
2228,10082648.268108532
2366,3154967.731038035
4122,20761064.491566443
4134,16984819.917032627
4171,3545058.630197298
4231,88754729.66090252
4244,15274.796332453941
4355,409377.97793219916
4480,28979.268805903346
2,3, 1, 3, 0,13, 0.00,60.00,Saturday
11,261749632.65860809
47,113439465.50495547
71,60497865.504955489
346,52941599.9999999
993,114247259.99999997
1017,114247259.99999997
1497,82569046.04590972
1533,11952079.865633984
1557,11952079.865633984
2228,10746811.525516324
2366,3588773.530058144
4122,21253684.870068276
4134,17284836.259454766
4171,3545058.6301972984
4231,67028192.65021759
4244,11942.221113008878
4355,2020521.3364257087
4480,29947.20052931685
2,3, 1, 3, 0,14, 0.00,60.00,Saturday
11,264479090.38023473
47,113355794.01978979
71,60414194.019789788
346,52941599.9999999
993,114247259.99999997
1017,114247259.99999997
1497,34998216.420167949
1533,513194.69713651677
1557,513194.69713651677
2228,11376044.182150362
2366,3553881.418121485
4122,22099248.511954119
4134,17874824.868679488
4171,3545058.6301972984
4231,30931140.30490994
4244,5537.90932841401
4355,3362133.0761934465
4480,33072.68081867913
2,3, 1, 3, 0,15, 0.00,60.00,Saturday
11,262885621.19445113
47,113097909.34311696
71,60156309.34311698
346,52941599.9999999
993,114247259.99999997
1017,114247259.99999997
1497,15606336.787528445
1533,427662.2476137639
1557,427662.2476137639
2228,9072383.941183676
2366,2973485.913455083
4122,22732048.420812578
4134,18440185.00292159
4171,3545058.6301972984
4231,12205188.626459597
4244,2185.2161699578175
4355,3698665.642226317
4480,35168.63094167519
2,3, 1, 3, 0,16, 0.00,60.00,Saturday
11,263211879.23466689
47,113412552.91857553
71,60470952.91857554
346,52941599.9999999
993,114247259.99999997
1017,114247259.99999997
1497,11365785.861729697
1533,427662.2476137639
1557,427662.2476137639
2228,9383573.861831906
2366,2761357.300169783
4122,23045748.348848914
4134,18878305.553884835
4171,3545058.6301972984
4231,8176766.313946148
4244,1463.9677037408097
4355,3085575.4744197505
4480,35704.66328707829
2,3, 1, 3, 0,17, 0.00,60.00,Saturday
11,265328326.63412196
47,117755833.69565727
71,64814233.69565728
346,52941599.9999999
993,114247259.99999997
1017,114247259.99999997
1497,39165797.51395612
1533,29024875.168857416
1557,29024875.168857416
2228,9179058.055932129
2366,2879998.5506087907
4122,22834610.692604036
4134,19032670.459838317
4171,3545058.6301972984
4231,7260923.794489922
4244,1299.9953192164108
4355,1274426.3022146088
4480,35837.89239473285
2,3, 1, 3, 0,18, 0.00,60.00,Saturday
11,255051816.45853237
47,111937382.99999996
71,64017782.99999998
346,47919599.99999992
993,113145659.99999997
1017,113145659.99999997
1497,48709037.87205448
1533,28597212.921243654
1557,28597212.921243654
2228,8117892.597482357
2366,2882800.6127920278
4122,21783702.39837374
4134,18232704.18930355
4171,3545058.6301972984
4231,17229024.3380188
4244,3084.6833857541525
4355,29481.989112119838
4480,34611.790178455274
2,3, 1, 3, 0,19, 0.00,60.00,Saturday
11,283261966.96067109
47,128942549.99999987
71,38125349.999999988
346,90817199.99999984
993,125066699.99999988
1017,125066699.99999988
1497,118731769.9540649
1533,28597212.921243654
1557,28597212.921243654
2228,8937601.466031012
2366,2533130.6211015146
4122,20270380.353440919
4134,16725321.723243617
4171,3545058.630197298
4231,87601426.41171974
4244,15684.153630470191
4355,0.0
4480,29050.987568817767
2,3, 1, 3, 0,20, 0.00,60.00,Saturday
11,305487684.5212665
47,142745273.9999998
71,23329673.999999994
346,119415599.9999998
993,138176819.9999998
1017,138176819.9999998
1497,101462904.68599066
1533,0.0
1557,0.0
2228,6208136.728276499
2366,2422965.2062799555
4122,18311040.57046413
4134,14765981.940266833
4171,3545058.6301972984
4231,99039939.47971072
4244,17732.10425880049
4355,0.0
4480,28681.118267361748
2,3, 1, 3, 0,21, 0.00,60.00,Saturday
11,333654526.0683987
47,157044473.99999977
71,23329673.999999994
346,133714799.99999979
993,152476019.99999977
1017,152476019.99999977
1497,124353912.1322414
1533,0.0
1557,0.0
2228,5772231.90539701
2366,2042361.3198732157
4122,18310968.87252285
4134,14765910.242325552
4171,3545058.6301972984
4231,122311550.81236819
4244,21898.652023154697
4355,0.0
4480,28932.638455956294
2,3, 1, 3, 0,22, 0.00,60.00,Saturday
11,273531069.73317989