Program Version,EnergyPlus, Version 9.0.1-bb7ca4f0da, YMD=2020.01.08 20:44
1,5,Environment Title[],Latitude[deg],Longitude[deg],Time Zone[],Elevation[m]
2,8,Day of Simulation[],Month[],Day of Month[],DST Indicator[1=yes 0=no],Hour[],StartMinute[],EndMinute[],DayType
3,5,Cumulative Day of Simulation[],Month[],Day of Month[],DST Indicator[1=yes 0=no],DayType  ! When Daily Meters Requested
4,2,Cumulative Days of Simulation[],Month[]  ! When Monthly Meters Requested
5,1,Cumulative Days of Simulation[] ! When Run Period Meters Requested
6,1,Calendar Year of Simulation[] ! When Annual Meters Requested
1533,1,InteriorEquipment:Gas [J] !Hourly
4235,1,Heating:Electricity [J] !Hourly
346,1,NonComplianceLtg:InteriorLights:Electricity [J] !Hourly
4222,1,Heating:Gas [J] !Hourly
1497,1,Gas:Facility [J] !Hourly
71,1,ComplianceLtg:InteriorLights:Electricity [J] !Hourly
11,1,Electricity:Facility [J] !Hourly
47,1,InteriorLights:Electricity [J] !Hourly
2366,1,WaterSystems:Gas [J] !Hourly
993,1,InteriorEquipment:Electricity [J] !Hourly
4114,1,Fans:Electricity [J] !Hourly
4471,1,Pumps:Electricity [J] !Hourly
4350,1,Cooling:Electricity [J] !Hourly
1017,1,Receptacle:InteriorEquipment:Electricity [J] !Hourly
2228,1,WaterSystems:Electricity [J] !Hourly
1557,1,Receptacle:InteriorEquipment:Gas [J] !Hourly
4126,1,General:Fans:Electricity [J] !Hourly
4162,1,ProcessMotors:Fans:Electricity [J] !Hourly
End of Data Dictionary
1,CTZ12S22A,  38.51,-121.50,  -8.00,   7.00
2,1, 1, 1, 0, 1, 0.00,60.00,Holiday
11,66342324.171838279
47,24156278.99999996
71,4835078.999999999
346,19321199.999999968
993,18722069.99999997
1017,18722069.99999997
1497,1042955.9527809088
1533,0.0
1557,0.0
2228,806268.7264279339
2366,1042955.9527809088
4114,22657706.445410395
4126,8458341.339612136
4162,14199365.105798256
4222,0.0
4235,0.0
4350,0.0
4471,0.0
2,1, 1, 1, 0, 2, 0.00,60.00,Holiday
11,67148404.53975776
47,24156278.99999996
71,4835078.999999999
346,19321199.999999968
993,18722069.99999997
1017,18722069.99999997
1497,1043349.7912773104
1533,0.0
1557,0.0
2228,1612349.0943474253
2366,1043349.7912773104
4114,22657706.445410395
4126,8458341.339612136
4162,14199365.105798256
4222,0.0
4235,0.0
4350,0.0
4471,0.0
2,1, 1, 1, 0, 3, 0.00,60.00,Holiday
11,67148124.3358418
47,24156278.99999996
71,4835078.999999999
346,19321199.999999968
993,18722069.99999997
1017,18722069.99999997
1497,1304059.2540410064
1533,0.0
1557,0.0
2228,1612068.8904314684
2366,1304059.2540410064
4114,22657706.445410395
4126,8458341.339612136
4162,14199365.105798256
4222,0.0
4235,0.0
4350,0.0
4471,0.0
2,1, 1, 1, 0, 4, 0.00,60.00,Holiday
11,68938205.74152594
47,24156278.99999996
71,4835078.999999999
346,19321199.999999968
993,18722069.99999997
1017,18722069.99999997
1497,1589366.0545285829
1533,0.0
1557,0.0
2228,1598814.629387547
2366,1038007.543651806
4114,24411218.30726037
4126,10199840.647029112
4162,14199365.105798256
4222,551358.5108767771
4235,50.09326033618911
4350,0.0
4471,49773.7116177228
2,1, 1, 1, 0, 5, 0.00,60.00,Holiday
11,70271739.36798597
47,24156278.99999996
71,4835078.999999999
346,19321199.999999968
993,18722069.99999997
1017,18722069.99999997
1497,2967635.5935556676
1533,0.0
1557,0.0
2228,799459.902724622
2366,1038131.6310771076
4114,26494220.89812836
4126,12255312.363479786
4162,14199365.105798256
4222,1929503.96247856
4235,185.40262699502967
4350,0.0
4471,99524.16450602736
2,1, 1, 1, 0, 6, 0.00,60.00,Holiday
11,131207060.58358369
47,52754678.99999992
71,4835078.999999999
346,47919599.99999992
993,47320469.999999929
1017,47320469.999999929
1497,66481724.16405678
1533,0.0
1557,0.0
2228,1599008.883722825
2366,1306100.3985371604
4114,29407871.44455505
4126,15191947.316513785
4162,14199365.105798256
4222,65175623.76551961
4235,748.8902387806073
4350,0.0
4471,124282.3650670784
2,1, 1, 1, 0, 7, 0.00,60.00,Holiday
11,187155990.19399984
47,74203478.99999988
71,4835078.999999999
346,69368399.9999999
993,68769269.9999999
1017,68769269.9999999
1497,381000746.089219
1533,28597212.921243654
1557,28597212.921243654
2228,1612293.6062329014
2366,1043342.7988038777
4114,42439815.956585358
4126,15633671.76000635
4162,14199365.105798256
4222,351360190.36917147
4235,1010.3625491949749
4350,0.0
4471,130121.26863258839
2,1, 1, 1, 0, 8, 0.00,60.00,Holiday
11,179922770.66455443
47,74201473.48385686
71,4833073.48385698
346,69368399.9999999
993,68769269.9999999
1017,68769269.9999999
1497,248614457.87122698
1533,28597212.921243654
1557,28597212.921243654
2228,1654218.3935238096
2366,1324121.3269236375
4114,35197352.72323761
4126,14287472.942453273
4162,14199365.105798256
4222,218693123.62305976
4235,1124.5775619776628
4350,0.0
4471,99331.4863742625
2,1, 1, 1, 0, 9, 0.00,60.00,Holiday
11,199828957.245374
47,77882031.96644673
71,8513631.966446855
346,69368399.9999999
993,72641339.99999988
1017,72641339.99999988
1497,577378825.2858625
1533,0.0
1557,0.0
2228,2524916.4825869926
2366,1337840.0092720772
4114,45697184.3170315
4126,25957173.092627065
4162,14199365.105798256
4222,576040985.2765904
4235,81786.57291855323
4350,0.0
4471,1001697.9063903069
2,1, 1, 1, 0,10, 0.00,60.00,Holiday
11,189695283.84420739
47,77868943.64813914
71,8500543.648139252
346,69368399.9999999
993,72641339.99999988
1017,72641339.99999988
1497,483390711.53728976
1533,0.0
1557,0.0
2228,2569298.6379565007
2366,1361620.9946058326
4114,36226993.58216515
4126,16627422.849064647
4162,14199365.105798256
4222,482029090.5426839
4235,58156.28384857895
4350,0.0
4471,330551.6920981196
2,1, 1, 1, 0,11, 0.00,60.00,Holiday
11,196503223.51653207
47,78335804.26424092
71,30416204.26424095
346,47919599.99999992
993,74424959.99999996
1017,74424959.99999996
1497,439441512.62053087
1533,0.0
1557,0.0
2228,5938724.209464009
2366,2234969.8199019806
4114,37534737.64597359
4126,16519577.605455209
4162,14199365.105798256
4222,437206542.8006289
4235,40581.98658022934
4350,0.0
4471,228415.4102734103
2,1, 1, 1, 0,12, 0.00,60.00,Holiday
11,196779979.76523025
47,78107312.85812901
71,30187712.858129048
346,47919599.99999992
993,74424959.99999996
1017,74424959.99999996
1497,427273788.74227109
1533,11438885.168497468
1557,11438885.168497468
2228,6897439.7292716749
2366,2191133.5674297406
4114,37093676.08671719
4126,16519577.605455209
4162,14199365.105798256
4222,413643770.00634387
4235,37645.51322687628
4350,0.0
4471,218945.57788562409
2,1, 1, 1, 0,13, 0.00,60.00,Holiday
11,221529696.09623189
47,88466803.32051578
71,40547203.32051581
346,47919599.99999992
993,89913239.99999997
1017,89913239.99999997
1497,335938377.60349717
1533,11438885.168497468
1557,11438885.168497468
2228,7079876.854074849
2366,2456350.61229963
4114,35838465.67137064
4126,16519577.605455209
4162,14199365.105798256
4222,322043141.8227001
4235,26099.881275848053
4350,0.0
4471,205210.36899488234
2,1, 1, 1, 0,14, 0.00,60.00,Holiday
11,219910093.75055463
47,87936718.29028133
71,40017118.29028135
346,47919599.99999992
993,89913239.99999997
1017,89913239.99999997
1497,283495318.346125
1533,0.0
1557,0.0
2228,7085405.805607495
2366,2475494.4384339086
4114,34748783.09276502
4126,16519577.605455209
4162,14199365.105798256
4222,281019823.90769109
4235,23198.130229350038
4350,0.0
4471,202748.43167152443
2,1, 1, 1, 0,15, 0.00,60.00,Holiday
11,220334578.33221255
47,88511981.95100835
71,40592381.95100837
346,47919599.99999992
993,89913239.99999997
1017,89913239.99999997
1497,269867753.63308867
1533,0.0
1557,0.0
2228,7205302.487930629
2366,2427234.213747122
4114,34480220.4859717
4126,16519577.605455209
4162,14199365.105798256
4222,267440519.41934157
4235,21859.882101449173
4350,0.0
4471,201973.52520053768
2,1, 1, 1, 0,16, 0.00,60.00,Holiday
11,220734618.96356438
47,89060637.38599669
71,41141037.38599671
346,47919599.99999992
993,89913239.99999997
1017,89913239.99999997
1497,252161114.97492079
1533,0.0
1557,0.0
2228,7386945.697237281
2366,2139130.371817905
4114,34152682.43092944
4126,16519577.605455209
4162,14199365.105798256
4222,250021984.60310287
4235,20095.692808140437
4350,0.0
4471,201017.75659288094
2,1, 1, 1, 0,17, 0.00,60.00,Holiday
11,221051567.34538505
47,89658838.88597116
71,41739238.88597117
346,47919599.99999992
993,89913239.99999997
1017,89913239.99999997
1497,261609263.581532
1533,28597212.921243654
1557,28597212.921243654
2228,7553822.498071937
2366,2445478.812567084
4114,33707010.599789258
4126,16519577.605455209
4162,14199365.105798256
4222,230566571.84772123
4235,18450.04424896805
4350,0.0
4471,200205.31730382818
2,1, 1, 1, 0,18, 0.00,60.00,Holiday
11,194068652.52050013
47,78647111.99999994
71,30727511.99999999
346,47919599.99999992
993,74424959.99999996
1017,74424959.99999996
1497,306077549.98469117
1533,28597212.921243654
1557,28597212.921243654
2228,6744710.417360611
2366,2415735.066785109
4114,34023347.89679019
4126,16519577.605455209
4162,14199365.105798256
4222,275064601.9966624
4235,25129.335933409588
4350,0.0
4471,203392.87041606924
2,1, 1, 1, 0,19, 0.00,60.00,Holiday
11,243614890.94268937
47,106749035.99999982
71,15931835.999999995
346,90817199.99999984
993,101834279.99999984
1017,101834279.99999984
1497,251153920.89535869
1533,28597212.921243654
1557,28597212.921243654
2228,5261718.548631929
2366,2007994.3986616093
4114,29518468.942738236
4126,14487417.026481722
4162,14199365.105798256
4222,220548713.5754534
4235,36249.4661301073
4350,0.0
4471,215137.9851893671
2,1, 1, 1, 0,20, 0.00,60.00,Holiday
11,271575269.68272677
47,124250678.9999998
71,4835078.999999999
346,119415599.9999998
993,118816469.99999982
1017,118816469.99999982
1497,5083832.312252406
1533,0.0
1557,0.0
2228,5713595.426416559
2366,1990736.275036627
4114,22794525.25631048
4126,8458341.339612136
4162,14199365.105798256
4222,3093096.037215779
4235,0.0
4350,0.0
4471,0.0
2,1, 1, 1, 0,21, 0.00,60.00,Holiday
11,298126210.89508637
47,138549878.9999998
71,4835078.999999999
346,133714799.99999979
993,133115669.99999979
1017,133115669.99999979
1497,2845837.0565293484
1533,0.0
1557,0.0
2228,3753251.9328611039
2366,1722176.1273815062
4114,22707409.962225576
4126,8458341.339612136
4162,14199365.105798256
4222,1123660.9291478424
4235,0.0
4350,0.0
4471,0.0
2,1, 1, 1, 0,22, 0.00,60.00,Holiday
11,269390176.11369159
47,124250678.9999998
71,4835078.999999999
346,119415599.9999998
993,118816469.99999982
1017,118816469.99999982
1497,5619482.349053953
1533,0.0
1557,0.0
2228,3489695.82132415
2366,1649088.5881547612
4114,22833331.292367694
4126,8458341.339612136
4162,14199365.105798256
4222,3970393.7608991919
4235,0.0
4350,0.0
4471,0.0
2,1, 1, 1, 0,23, 0.00,60.00,Holiday
11,211009222.6937906
47,95652278.99999984
71,4835078.999999999
346,90817199.99999984
993,90218069.99999985
1017,90218069.99999985
1497,1061005.2527713644
1533,0.0
1557,0.0
2228,2481167.248380487
2366,1061005.2527713644
4114,22657706.445410395
4126,8458341.339612136
4162,14199365.105798256
4222,0.0
4235,0.0
4350,0.0
4471,0.0
2,1, 1, 1, 0,24, 0.00,60.00,Holiday
11,123532323.08410281
47,52754678.99999992
71,4835078.999999999
346,47919599.99999992
993,47320469.999999929
1017,47320469.999999929
1497,1297550.9258423758
1533,0.0
1557,0.0
2228,799467.6386924613
2366,1297550.9258423758
4114,22657706.445410395
4126,8458341.339612136
4162,14199365.105798256
4222,0.0
4235,0.0
4350,0.0
4471,0.0
2,2, 1, 2, 0, 1, 0.00,60.00,Friday
11,66322424.77297931
47,24156278.99999996
71,4835078.999999999
346,19321199.999999968
993,18722069.99999997
1017,18722069.99999997
1497,1029966.9760772202
1533,0.0
1557,0.0
2228,786369.3275689735
2366,1029966.9760772202
4114,22657706.445410395
4126,8458341.339612136
4162,14199365.105798256
4222,0.0
4235,0.0
4350,0.0
4471,0.0
2,2, 1, 2, 0, 2, 0.00,60.00,Friday
11,67121598.68777284
47,24156278.99999996
71,4835078.999999999
346,19321199.999999968
993,18722069.99999997
1017,18722069.99999997
1497,1034847.1144498413
1533,0.0
1557,0.0
2228,1585543.242362501
2366,1034847.1144498413
4114,22657706.445410395
4126,8458341.339612136
4162,14199365.105798256
4222,0.0
4235,0.0
4350,0.0
4471,0.0
2,2, 1, 2, 0, 3, 0.00,60.00,Friday
11,66399781.63876545
47,24156278.99999996
71,4835078.999999999
346,19321199.999999968
993,18722069.99999997
1017,18722069.99999997
1497,2639078.4926559485
1533,0.0
1557,0.0
2228,792773.0202255425
2366,1035021.3524745448
4114,22728659.61853996
4126,8458341.339612136
4162,14199365.105798256
4222,1604057.1401814032
4235,0.0
4350,0.0
4471,0.0
2,2, 1, 2, 0, 4, 0.00,60.00,Friday
11,68554240.06132947
47,24156278.99999996
71,4835078.999999999
346,19321199.999999968
993,18722069.99999997
1017,18722069.99999997
1497,8474890.012827425
1533,0.0
1557,0.0
2228,786387.1200019813
2366,1029988.3805001204
4114,24864567.115832375
4126,10350561.436049117
4162,14199365.105798256
4222,7444901.632327303
4235,59.395352934458809
4350,0.0
4471,24877.430142244673
2,2, 1, 2, 0, 5, 0.00,60.00,Friday
11,71092633.83056323
47,24156278.99999996
71,4835078.999999999
346,19321199.999999968
993,18722069.99999997
1017,18722069.99999997
1497,22199127.363696729
1533,0.0
1557,0.0
2228,786266.5974098558
2366,1030021.028300642
4114,27328257.964082194
4126,12255312.363479786
4162,14199365.105798256
4222,21169106.335396086
4235,254.21104600606004
4350,0.0
4471,99506.05802522753
2,2, 1, 2, 0, 6, 0.00,60.00,Friday
11,131866600.40754402
47,53890838.99999992
71,5971238.999999999
346,47919599.99999992
993,47871269.999999929
1017,47871269.999999929
1497,81491691.05129081
1533,0.0
1557,0.0
2228,786380.7436650132
2366,1036874.98750034
4114,29218168.651380864
4126,14287472.942453273
4162,14199365.105798256
4222,80454816.06379047
4235,493.4301263598346
4350,0.0
4471,99448.58237182573
2,2, 1, 2, 0, 7, 0.00,60.00,Friday
11,213216946.30895943
47,80361638.99999988
71,5971238.999999999
346,74390399.99999988
993,69320069.9999999
1017,69320069.9999999
1497,1006981119.6905347
1533,28597212.921243654
1557,28597212.921243654
2228,786410.58207499
2366,1194717.4578944215
4114,61420773.8412437
4126,26233274.298436367
4162,14199365.105798256
4222,977189189.3113966
4235,95051.96504154183
4350,0.0
4471,1233000.9205993764
2,2, 1, 2, 0, 8, 0.00,60.00,Friday
11,225104829.4619476
47,95986382.49742146
71,21595982.497421579
346,74390399.99999988
993,83139479.99999988
1017,83139479.99999988
1497,678332306.0283593
1533,28882321.086319496
1557,28882321.086319496
2228,3458790.811504796
2366,1796236.449850676
4114,42099730.26099558
4126,16585037.366628025
4162,14199365.105798256
4222,647653748.492189
4235,65831.51737515173
4350,0.0
4471,354614.37465069859
2,2, 1, 2, 0, 9, 0.00,60.00,Friday
11,283450597.3540076
47,125893143.76682464
71,51502743.766824748
346,74390399.99999988
993,112981499.99999987
1017,112981499.99999987
1497,521399172.6468141
1533,285108.16507584266
1557,285108.16507584266
2228,4663195.322176248
2366,2450889.9474238075
4114,39614584.038862008
4126,16519577.605455209
4162,14199365.105798256
4222,518663174.5343144
4235,48144.17467852172
4350,0.0
4471,250030.05146628057
2,2, 1, 2, 0,10, 0.00,60.00,Friday
11,339786471.845303
47,150967466.959673
71,76577066.95967303
346,74390399.99999988
993,143958059.99999995
1017,143958059.99999995
1497,413516968.80214008
1533,285108.16507584266
1557,285108.16507584266
2228,6134980.114377059
2366,2768691.252106523
4114,38478331.59958979
4126,16563752.365291605
4162,14199365.105798256
4222,410463169.38495776
4235,31310.218530862647
4350,0.0
4471,216322.95313241927
2,2, 1, 2, 0,11, 0.00,60.00,Friday
11,300799417.16966477
47,129633544.44959232
71,76691944.44959235
346,52941599.9999999
993,122509259.99999996
1017,122509259.99999996
1497,420559576.3363588
1533,513194.69713651677
1557,513194.69713651677
2228,9052658.789945266
2366,3303170.876679874
4114,39362994.91712103
4126,16589844.984471288
4162,14199365.105798256
4222,416743210.76254239
4235,28959.438050662888
4350,0.0
4471,211999.574955426
2,2, 1, 2, 0,12, 0.00,60.00,Friday
11,301966667.86120858
47,129192910.10425937
71,76251310.1042594
346,52941599.9999999
993,122509259.99999996
1017,122509259.99999996
1497,407042680.0967318
1533,11952079.865633984
1557,11952079.865633984
2228,11171288.060734323
2366,3992317.6850290156
4114,38856630.10818954
4126,16797087.42282237
4162,14199365.105798256
4222,391098282.5460687
4235,27256.364722519847
4350,0.0
4471,209323.22330294015
2,2, 1, 2, 0,13, 0.00,60.00,Friday
11,299171502.913332
47,126943048.2811497
71,74001448.28114972
346,52941599.9999999
993,122509259.99999996
1017,122509259.99999996
1497,334453652.269274
1533,11952079.865633984
1557,11952079.865633984
2228,12842867.52323577
2366,4634583.529403617
4114,36648265.70558356
4126,16866362.632120078
4162,14199365.105798256
4222,317866988.8742364
4235,23377.52059969274
4350,0.0
4471,204683.88276339219
2,2, 1, 2, 0,14, 0.00,60.00,Friday
11,298260896.19672307
47,127727657.87244885
71,74786057.87244886
346,52941599.9999999
993,122509259.99999996
1017,122509259.99999996
1497,273142084.7371271
1533,513194.69713651677
1557,513194.69713651677
2228,12583288.01198513
2366,4320198.2669703899
4114,35218149.2391766
4126,16909720.61001644
4162,14199365.105798256
4222,268308691.7730202
4235,20525.627002556455
4350,0.0
4471,202015.44611002954
2,2, 1, 2, 0,15, 0.00,60.00,Friday
11,295361458.44805487
47,128023574.81604365
71,75081974.81604368
346,52941599.9999999
993,122509259.99999996
1017,122509259.99999996
1497,248905266.6299811
1533,427662.2476137639
1557,427662.2476137639
2228,10129297.967632009
2366,3636937.6010819936
4114,34478598.67470429
4126,16947235.788698008
4162,14199365.105798256
4222,244840666.78128536
4235,19506.870958307918
4350,0.0
4471,201220.11871673654
2,2, 1, 2, 0,16, 0.00,60.00,Friday
11,290678455.9114692
47,125189676.04441749
71,72248076.0444175
346,52941599.9999999
993,122509259.99999996
1017,122509259.99999996
1497,214065274.40348996
1533,427662.2476137639
1557,427662.2476137639
2228,9498750.735699859
2366,3152418.4795361107
4114,33260479.504220975
4126,17144398.664403
4162,14199365.105798256
4222,210485193.67634005
4235,19231.34564456109
4350,0.0
4471,201058.28148635324
2,2, 1, 2, 0,17, 0.00,60.00,Friday
11,295421108.560042
47,130070843.12009736
71,77129243.12009739
346,52941599.9999999
993,122509259.99999996
1017,122509259.99999996
1497,253359096.2003105
1533,29024875.168857416
1557,29024875.168857416
2228,9170484.52936696
2366,3646176.113548194
4114,33448775.546017916
4126,17100927.43776871
4162,14199365.105798256
4222,220688044.91790486
4235,20154.90957445086
4350,0.0
4471,201590.4549854408
2,2, 1, 2, 0,18, 0.00,60.00,Friday
11,286068969.7841669
47,123776342.99999996
71,70834742.99999997
346,52941599.9999999
993,118102859.99999997
1017,118102859.99999997
1497,296497269.568701
1533,29024875.168857416
1557,29024875.168857416
2228,9379590.822957496
2366,3325439.7186054547
4114,34584836.93922499
4126,16882079.053030708
4162,14199365.105798256
4222,264146954.6812381
4235,22166.9593730641
4350,0.0
4471,203172.06261144879
2,2, 1, 2, 0,19, 0.00,60.00,Friday
11,320110454.3038959
47,143344268.99999986
71,47505068.99999999
346,95839199.99999984
993,135564839.99999989
1017,135564839.99999989
1497,275126432.00377169
1533,28597212.921243654
1557,28597212.921243654
2228,8778673.313809935
2366,2930891.3620485749
4114,32186354.04664782
4126,16660648.647831377
4162,14199365.105798256
4222,243598327.7204794
4235,27294.34796499562
4350,0.0
4471,209023.59547336898
2,2, 1, 2, 0,20, 0.00,60.00,Friday
11,374967308.34044638
47,171942668.99999974
71,47505068.99999999
346,124437599.9999998
993,164163239.99999974
1017,164163239.99999974
1497,260602463.49344594
1533,0.0
1557,0.0
2228,7173842.168656342
2366,2594423.027455665
4114,31435966.407549889
4126,16534712.281148179
4162,14199365.105798256
4222,258008040.46599029
4235,32401.804873561134
4350,0.0
4471,219188.95936699684
2,2, 1, 2, 0,21, 0.00,60.00,Friday
11,387789091.155789
47,180270629.9999997
71,41533829.999999988
346,138736799.9999998
993,169616699.99999974
1017,169616699.99999974
1497,276876658.7363854
1533,0.0
1557,0.0
2228,6330106.411190434
2366,2560339.8869567567
4114,31307927.3056669
4126,16519577.605455209
4162,14199365.105798256
4222,274316318.84942868
4235,35817.31944531429
4350,0.0
4471,227910.11948677613
2,2, 1, 2, 0,22, 0.00,60.00,Friday
11,306563456.89128449
47,143777915.9999998
71,19340315.999999998
346,124437599.9999998
993,132085079.9999998
1017,132085079.9999998
1497,93432689.26543559
1533,0.0
1557,0.0
2228,4659319.681245914
2366,1718631.1303624623
4114,26041141.210038879
4126,10490501.918585619
4162,14199365.105798256
4222,91714058.13507311
4235,0.0
4350,0.0
4471,0.0
2,2, 1, 2, 0,23, 0.00,60.00,Friday
11,214794521.78743638
47,96788438.99999984
71,5971238.999999999
346,90817199.99999984
993,90768869.99999985
1017,90768869.99999985
1497,62783069.0871046
1533,0.0
1557,0.0
2228,2547345.763052742
2366,1617599.3339098155
4114,24689867.024383874
4126,10490501.918585619
4162,14199365.105798256
4222,61165469.753194797
4235,0.0
4350,0.0
4471,0.0
2,2, 1, 2, 0,24, 0.00,60.00,Friday
11,126391303.98435124
47,52754678.99999992
71,4835078.999999999
346,47919599.99999992
993,47320469.999999929
1017,47320469.999999929
1497,62216485.11094701
1533,0.0
1557,0.0
2228,1626287.9599673986
2366,1051015.3577522217
4114,24689867.024383874
4126,10490501.918585619
4162,14199365.105798256
4222,61165469.753194797
4235,0.0
4350,0.0
4471,0.0
2,3, 1, 3, 0, 1, 0.00,60.00,Saturday
11,68277988.14319846
47,24156278.99999996
71,4835078.999999999
346,19321199.999999968
993,18722069.99999997
1017,18722069.99999997
1497,6737216.289710203
1533,0.0
1557,0.0
2228,2502933.2517871705
2366,1334095.1397120488
4114,22896705.89141133
4126,8458341.339612136
4162,14199365.105798256
4222,5403121.149998155
4235,0.0
4350,0.0
4471,0.0
2,3, 1, 3, 0, 2, 0.00,60.00,Saturday
11,69856035.35773157
47,24156278.99999996
71,4835078.999999999
346,19321199.999999968
993,18722069.99999997
1017,18722069.99999997
1497,42895868.75220917
1533,0.0
1557,0.0
2228,2481247.2780535279
2366,1327182.1359149954
4114,24496439.0796781
4126,8458341.339612136
4162,14199365.105798256
4222,41568686.616294179
4235,0.0
4350,0.0
4471,0.0
2,3, 1, 3, 0, 3, 0.00,60.00,Saturday
11,70522613.58781952
47,24156278.99999996
71,4835078.999999999
346,19321199.999999968
993,18722069.99999997
1017,18722069.99999997
1497,77286891.10706036
1533,0.0
1557,0.0
2228,1625991.755181936
2366,1313728.4953413103
4114,26018272.832637647
4126,8458341.339612136
4162,14199365.105798256
4222,75973162.61171906
4235,0.0
4350,0.0
4471,0.0
2,3, 1, 3, 0, 4, 0.00,60.00,Saturday
11,70768113.50075312
47,24156278.99999996
71,4835078.999999999
346,19321199.999999968
993,18722069.99999997
1017,18722069.99999997
1497,101251789.33190358
1533,0.0
1557,0.0
2228,799334.7734212502
2366,1040105.1709547052
4114,27090429.727331919
4126,8458341.339612136
4162,14199365.105798256
4222,100211684.16094888
4235,0.0
4350,0.0
4471,0.0
2,3, 1, 3, 0, 5, 0.00,60.00,Saturday
11,73206615.9635756
47,24156278.99999996
71,4835078.999999999
346,19321199.999999968
993,18722069.99999997
1017,18722069.99999997
1497,138307389.69741658
1533,0.0
1557,0.0
2228,1598748.110799766
2366,1040417.7382085272
4114,28729518.85277587
4126,8458341.339612136
4162,14199365.105798256
4222,137266971.95920805
4235,0.0
4350,0.0
4471,0.0
2,3, 1, 3, 0, 6, 0.00,60.00,Saturday
11,130817093.8403531
47,52754678.99999992
71,4835078.999999999
346,47919599.99999992
993,47320469.999999929
1017,47320469.999999929
1497,181220852.47446478
1533,0.0
1557,0.0
2228,799494.444848927
2366,1308916.450122161
4114,29942450.3955042
4126,10490501.918585619
4162,14199365.105798256
4222,179911936.02434267
4235,0.0
4350,0.0
4471,0.0
2,3, 1, 3, 0, 7, 0.00,60.00,Saturday
11,226242899.43770419
47,80361638.99999988
71,5971238.999999999
346,74390399.99999988
993,69320069.9999999
1017,69320069.9999999
1497,1381359514.9714308
1533,28597212.921243654
1557,28597212.921243654
2228,1612385.356933569
2366,1069946.3932057408
4114,73455670.76569866
4126,24474059.694412017
4162,14199365.105798256
4222,1351692355.6569815
4235,111821.7068767094
4350,0.0
4471,1381312.6081954474
2,3, 1, 3, 0, 8, 0.00,60.00,Saturday
11,214012475.23218698
47,83793226.42094967
71,9402826.420949797
346,74390399.99999988
993,73192139.99999988
1017,73192139.99999988
1497,984567154.3812389
1533,28597212.921243654
1557,28597212.921243654
2228,4527409.268931588
2366,1965736.87940136
4114,51716647.7376198
4126,16550522.652137414
4162,14199365.105798256
4222,954004204.5805938
4235,88595.53213064456
4350,0.0
4471,694456.2725553822
2,3, 1, 3, 0, 9, 0.00,60.00,Saturday
11,239112926.15144039
47,100579167.79474785
71,26188767.79474798
346,74390399.99999988
993,90883619.99999987
1017,90883619.99999987
1497,666874117.2110434
1533,285108.16507584266
1557,285108.16507584266
2228,4706605.19783566
2366,2051193.92516285
4114,42490251.51524163
4126,16519577.605455209
4162,14199365.105798256
4222,664537815.1208048
4235,67497.8017675137
4350,0.0
4471,385783.8418477997
2,3, 1, 3, 0,10, 0.00,60.00,Saturday
11,275350560.87839058
47,118242268.11339751
71,43851868.11339764
346,74390399.99999988
993,114116039.99999988
1017,114116039.99999988
1497,438755537.839074
1533,285108.16507584266
1557,285108.16507584266
2228,5820880.081410328
2366,2421116.7598263008
4114,36875819.554767388
4126,16563792.734889852
4162,14199365.105798256
4222,436049312.9141719
4235,43765.13109413065
4350,0.0
4471,251787.99772133083
2,3, 1, 3, 0,11, 0.00,60.00,Saturday
11,277092234.9127175
47,117734506.7907556
71,64792906.790755618
346,52941599.9999999
993,115899659.99999997
1017,115899659.99999997
1497,333978762.74266919
1533,513194.69713651677
1557,513194.69713651677
2228,8010554.6998522
2366,2918728.495338456
4114,35200585.54697567
4126,16649376.125737668
4162,14199365.105798256
4222,330546839.55019417
4235,30615.566313566836
4350,0.0
4471,216312.30882060098
2,3, 1, 3, 0,12, 0.00,60.00,Saturday
11,279390044.35894528
47,117812437.26169074
71,64870837.26169075
346,52941599.9999999
993,115899659.99999997
1017,115899659.99999997
1497,287084252.8292339
1533,11952079.865633984
1557,11952079.865633984
2228,11335335.853129097
2366,3356134.4221948075
4114,33906516.89411682
4126,16875008.47274379
4162,14199365.105798256
4222,271776038.54140517
4235,26408.841082195955
4350,201308.56933251886
4471,208376.93959398868
2,3, 1, 3, 0,13, 0.00,60.00,Saturday
11,276308629.4589392
47,114514560.0365881
71,61572960.03658812
346,52941599.9999999
993,114247259.99999997
1017,114247259.99999997
1497,246378911.28959937
1533,11952079.865633984
1557,11952079.865633984
2228,12241526.12816952
2366,3665672.2813785967
4114,33389647.03924469
4126,16953923.34807764
4162,14199365.105798256
4222,230761159.1425868
4235,22708.80370225817
4350,1688734.059578394
4471,204193.39165637719
2,3, 1, 3, 0,14, 0.00,60.00,Saturday
11,277277287.1405419
47,114622403.44234595
71,61680803.442345988
346,52941599.9999999
993,114247259.99999997
1017,114247259.99999997
1497,211565116.934926
1533,513194.69713651677
1557,513194.69713651677
2228,11681820.30122493
2366,3727341.3064751008
4114,33184027.55287734
4126,17004990.059536358
4162,14199365.105798256
4222,207324580.9313144
4235,20918.847037726628
4350,3318451.2156405069
4471,202405.78141551294
2,3, 1, 3, 0,15, 0.00,60.00,Saturday
11,276364764.2874835
47,114810934.52105943
71,61869334.52105943
346,52941599.9999999
993,114247259.99999997
1017,114247259.99999997
1497,190458170.65108896
1533,427662.2476137639
1557,427662.2476137639
2228,10018117.899435854
2366,3215644.080388924
4114,33125017.49237951
4126,17234869.4594957
4162,14199365.105798256
4222,186814864.32308627
4235,18948.320677666423
4350,3943396.457697871
4471,201089.5962332437
2,3, 1, 3, 0,16, 0.00,60.00,Saturday
11,274177307.0442712
47,113650183.45322547
71,60708583.453225489
346,52941599.9999999
993,114247259.99999997
1017,114247259.99999997
1497,186757765.7602922
1533,427662.2476137639
1557,427662.2476137639
2228,9830630.812741263
2366,3126333.9590967965
4114,33249424.85139298
4126,17583271.6413891
4162,14199365.105798256
4222,183203769.55358166
4235,18408.34331452428
4350,2980756.8132215726
4471,200642.7703755146
2,3, 1, 3, 0,17, 0.00,60.00,Saturday
11,275500810.19737949
47,117419070.072394
71,64477470.07239401
346,52941599.9999999
993,114247259.99999997
1017,114247259.99999997
1497,230237989.0984074
1533,29024875.168857416
1557,29024875.168857416
2228,9737977.539981503
2366,3115051.471360076
4114,33052652.24877393
4126,17664050.840260194
4162,14199365.105798256
4222,198098062.45818988
4235,20380.86923172673
4350,821716.9932199593
4471,201752.47377849296
2,3, 1, 3, 0,18, 0.00,60.00,Saturday
11,267824711.61969618
47,111937382.99999996
71,64017782.99999998
346,47919599.99999992
993,113145659.99999997
1017,113145659.99999997
1497,271311292.3840851
1533,28597212.921243654
1557,28597212.921243654
2228,9611398.362112495
2366,2719440.070704296
4114,32897931.87822862
4126,17104322.698883337
4162,14199365.105798256
4222,239994639.3921372
4235,25564.76184284039
4350,0.0
4471,206773.6175123367
2,3, 1, 3, 0,19, 0.00,60.00,Saturday
11,295210030.40189698
47,128942549.99999987
71,38125349.999999988
346,90817199.99999984
993,125066699.99999988
1017,125066699.99999988
1497,305650061.4796902
1533,28597212.921243654
1557,28597212.921243654
2228,9244539.532686394
2366,2813687.0329926239
4114,31697866.864747876
4126,16519577.605455209
4162,14199365.105798256
4222,274239161.5254539
4235,34257.684009928664
4350,0.0
4471,224116.32045305035
2,3, 1, 3, 0,20, 0.00,60.00,Saturday
11,317420820.03729477
47,142745273.9999998
71,23329673.999999994
346,119415599.9999998
993,138176819.9999998
1017,138176819.9999998
1497,250580810.04692845
1533,0.0
1557,0.0
2228,7082249.012991406
2366,2463070.0041694736
4114,29119306.13415499
4126,14487417.026481722
4162,14199365.105798256
4222,248117740.04275898
4235,44115.39384180607
4350,0.0
4471,253055.4963069122
2,3, 1, 3, 0,21, 0.00,60.00,Saturday
11,344902588.8626268
47,157044473.99999977
71,23329673.999999994
346,133714799.99999979
993,152476019.99999977
1017,152476019.99999977
1497,274013498.31610646
1533,0.0
1557,0.0
2228,5926362.723864887
2366,2068631.2992186128
4114,29136421.972563425
4126,14487417.026481722
4162,14199365.105798256
4222,271944867.01688787
4235,49367.06374644843
4350,0.0
4471,269943.1024523407
2,3, 1, 3, 0,22, 0.00,60.00,Saturday
11,284960408.81326606
47,127949597.9999998
71,8533997.999999999
346,119415599.9999998