Program Version,EnergyPlus, Version 9.0.1-bb7ca4f0da, YMD=2019.11.07 11:54
1,5,Environment Title[],Latitude[deg],Longitude[deg],Time Zone[],Elevation[m]
2,8,Day of Simulation[],Month[],Day of Month[],DST Indicator[1=yes 0=no],Hour[],StartMinute[],EndMinute[],DayType
3,5,Cumulative Day of Simulation[],Month[],Day of Month[],DST Indicator[1=yes 0=no],DayType  ! When Daily Meters Requested
4,2,Cumulative Days of Simulation[],Month[]  ! When Monthly Meters Requested
5,1,Cumulative Days of Simulation[] ! When Run Period Meters Requested
6,1,Calendar Year of Simulation[] ! When Annual Meters Requested
1083,1,Pumps:Electricity [J] !Hourly
207,1,Receptacle:InteriorEquipment:Electricity [J] !Hourly
46,1,InteriorLights:Electricity [J] !Hourly
1017,1,Heating:Gas [J] !Hourly
10,1,Electricity:Facility [J] !Hourly
183,1,InteriorEquipment:Electricity [J] !Hourly
913,1,Fans:Electricity [J] !Hourly
979,1,Heating:Electricity [J] !Hourly
1057,1,Cooling:Electricity [J] !Hourly
333,1,WaterSystems:Electricity [J] !Hourly
993,1,Gas:Facility [J] !Hourly
70,1,ComplianceLtg:InteriorLights:Electricity [J] !Hourly
End of Data Dictionary
1,SACRAMENTO-EXECUTIVE-ARP ANN CLG 0.4% CONDNS DB=>MCWB,  38.50,-121.50,  -8.00,   5.00
2,1, 7,21, 0, 1, 0.00,60.00,SummerDesignDay
10,54615414.215963307
46,11884483.805759978
70,11884483.805759978
183,29711209.514399847
207,29711209.514399847
333,3310272.51343844
913,8633407.29726225
979,0.0
993,895053.5491955656
1017,895053.5491955656
1057,1076041.0851027934
1083,0.0
2,1, 7,21, 0, 2, 0.00,60.00,SummerDesignDay
10,57378069.804575059
46,11884483.805759978
70,11884483.805759978
183,29711209.514399847
207,29711209.514399847
333,3309972.4605755528
913,8633407.894914948
979,0.0
993,0.0
1017,0.0
1057,3838996.128924731
1083,0.0
2,1, 7,21, 0, 3, 0.00,60.00,SummerDesignDay
10,58115600.57650684
46,11884483.805759978
70,11884483.805759978
183,29711209.514399847
207,29711209.514399847
333,3309923.1060054705
913,8633408.054790916
979,0.0
993,0.0
1017,0.0
1057,4576576.095550636
1083,0.0
2,1, 7,21, 0, 4, 0.00,60.00,SummerDesignDay
10,58377297.426300209
46,11884483.805759978
70,11884483.805759978
183,29711209.514399847
207,29711209.514399847
333,3309636.964148082
913,8633408.150571948
979,0.0
993,0.0
1017,0.0
1057,4838558.991420357
1083,0.0
2,1, 7,21, 0, 5, 0.00,60.00,SummerDesignDay
10,58499178.1932394
46,11884483.805759978
70,11884483.805759978
183,29711209.514399847
207,29711209.514399847
333,3309858.473073337
913,8633408.214473553
979,0.0
993,0.0
1017,0.0
1057,4960218.185532691
1083,0.0
2,1, 7,21, 0, 6, 0.00,60.00,SummerDesignDay
10,78782093.68778041
46,11884483.805759978
70,11884483.805759978
183,29711209.514399847
207,29711209.514399847
333,3310342.48959238
913,8633411.065877306
979,0.0
993,0.0
1017,0.0
1057,25242646.812150919
1083,0.0
2,1, 7,21, 0, 7, 0.00,60.00,SummerDesignDay
10,74273078.6168465
46,11884483.805759978
70,11884483.805759978
183,29711209.514399847
207,29711209.514399847
333,3309551.016068644
913,8633410.406943707
979,0.0
993,0.0
1017,0.0
1057,20734423.87367433
1083,0.0
2,1, 7,21, 0, 8, 0.00,60.00,SummerDesignDay
10,74095967.5632457
46,11884483.805759978
70,11884483.805759978
183,29711209.514399847
207,29711209.514399847
333,3309745.5371859206
913,8633410.135895336
979,0.0
993,0.0
1017,0.0
1057,20557118.570004625
1083,0.0
2,1, 7,21, 0, 9, 0.00,60.00,SummerDesignDay
10,75124761.1678833
46,11884483.805759978
70,11884483.805759978
183,29711209.514399847
207,29711209.514399847
333,3309953.6951808759
913,8633410.129951062
979,0.0
993,0.0
1017,0.0
1057,21585704.022591548
1083,0.0
2,1, 7,21, 0,10, 0.00,60.00,SummerDesignDay
10,77604245.5118469
46,11884483.805759978
70,11884483.805759978
183,29711209.514399847
207,29711209.514399847
333,3309717.4203388558
913,8633410.214701925
979,0.0
993,0.0
1017,0.0
1057,24065424.556646296
1083,0.0
2,1, 7,21, 0,11, 0.00,60.00,SummerDesignDay
10,80446387.10994303
46,11884483.805759978
70,11884483.805759978
183,29711209.514399847
207,29711209.514399847
333,3310369.662275032
913,8633410.323445283
979,0.0
993,0.0
1017,0.0
1057,26906913.8040629
1083,0.0
2,1, 7,21, 0,12, 0.00,60.00,SummerDesignDay
10,82952875.59918803
46,11884483.805759978
70,11884483.805759978
183,29711209.514399847
207,29711209.514399847
333,3309785.426577618
913,8633410.43865941
979,0.0
993,0.0
1017,0.0
1057,29413986.413791174
1083,0.0
2,1, 7,21, 0,13, 0.00,60.00,SummerDesignDay
10,85413838.76387128
46,11884483.805759978
70,11884483.805759978
183,29711209.514399847
207,29711209.514399847
333,3762955.4043126839
913,8633410.53440876
979,0.0
993,0.0
1017,0.0
1057,31421779.50499002
1083,0.0
2,1, 7,21, 0,14, 0.00,60.00,SummerDesignDay
10,87099567.85907567
46,11884483.805759978
70,11884483.805759978
183,29711209.514399847
207,29711209.514399847
333,3935775.7593887296
913,8633410.607832253
979,0.0
993,0.0
1017,0.0
1057,32934688.17169485
1083,0.0
2,1, 7,21, 0,15, 0.00,60.00,SummerDesignDay
10,87357341.01216449
46,11884483.805759978
70,11884483.805759978
183,29711209.514399847
207,29711209.514399847
333,3309797.619951735
913,8633410.651126475
979,0.0
993,0.0
1017,0.0
1057,33818439.42092647
1083,0.0
2,1, 7,21, 0,16, 0.00,60.00,SummerDesignDay
10,87215304.90879469
46,11884483.805759978
70,11884483.805759978
183,29711209.514399847
207,29711209.514399847
333,3310005.3879024565
913,8633410.65304849
979,0.0
993,0.0
1017,0.0
1057,33676195.54768392
1083,0.0
2,1, 7,21, 0,17, 0.00,60.00,SummerDesignDay
10,85939441.80347592
46,11884483.805759978
70,11884483.805759978
183,29711209.514399847
207,29711209.514399847
333,3309816.163174334
913,8633410.609492753
979,0.0
993,0.0
1017,0.0
1057,32400521.71064901
1083,0.0
2,1, 7,21, 0,18, 0.00,60.00,SummerDesignDay
10,83843240.12557341
46,11884483.805759978
70,11884483.805759978
183,29711209.514399847
207,29711209.514399847
333,3309676.191779921
913,8633410.526506519
979,0.0
993,0.0
1017,0.0
1057,30304460.087127147
1083,0.0
2,1, 7,21, 0,19, 0.00,60.00,SummerDesignDay
10,80869563.18234045
46,11884483.805759978
70,11884483.805759978
183,29711209.514399847
207,29711209.514399847
333,3309891.6855585195
913,8633410.408694899
979,0.0
993,0.0
1017,0.0
1057,27330567.76792722
1083,0.0
2,1, 7,21, 0,20, 0.00,60.00,SummerDesignDay
10,77643213.37683943
46,11884483.805759978
70,11884483.805759978
183,29711209.514399847
207,29711209.514399847
333,3310263.166714006
913,8633410.274965594
979,0.0
993,0.0
1017,0.0
1057,24103846.615000007
1083,0.0
2,1, 7,21, 0,21, 0.00,60.00,SummerDesignDay
10,75245347.49198407
46,11884483.805759978
70,11884483.805759978
183,29711209.514399847
207,29711209.514399847
333,3310231.8401064195
913,8633410.146178673
979,0.0
993,0.0
1017,0.0
1057,21706012.18553915
1083,0.0
2,1, 7,21, 0,22, 0.00,60.00,SummerDesignDay
10,73817856.21876756
46,11884483.805759978
70,11884483.805759978
183,29711209.514399847
207,29711209.514399847
333,3309778.3744513296
913,8633410.037574154
979,0.0
993,0.0
1017,0.0
1057,20278974.48658225
1083,0.0
2,1, 7,21, 0,23, 0.00,60.00,SummerDesignDay
10,72877839.66962405
46,11884483.805759978
70,11884483.805759978
183,29711209.514399847
207,29711209.514399847
333,3309986.2866217924
913,8633409.949225812
979,0.0
993,0.0
1017,0.0
1057,19338750.113616617
1083,0.0
2,1, 7,21, 0,24, 0.00,60.00,SummerDesignDay
10,72076200.23076138
46,11884483.805759978
70,11884483.805759978
183,29711209.514399847
207,29711209.514399847
333,3309484.3831967266
913,8633409.875687836
979,0.0
993,0.0
1017,0.0
1057,18537612.651716997
1083,0.0
1,SACRAMENTO-EXECUTIVE-ARP ANN CLG 0.4% CONDNS DP=>MCDB,  38.50,-121.50,  -8.00,   5.00
2,1, 7,21, 0, 1, 0.00,60.00,SummerDesignDay
10,53886429.52172589
46,11884483.805759978
70,11884483.805759978
183,29711209.514399847
207,29711209.514399847
333,3310419.5987141656
913,8633407.051494994
979,0.0
993,650360.4617290825
1017,650360.4617290825
1057,346909.55135691029
1083,0.0
2,1, 7,21, 0, 2, 0.00,60.00,SummerDesignDay
10,54682982.48978931
46,11884483.805759978
70,11884483.805759978
183,29711209.514399847
207,29711209.514399847
333,3309972.3511088036
913,8633407.576597298
979,0.0
993,0.0
1017,0.0
1057,1143909.241923388
1083,0.0
2,1, 7,21, 0, 3, 0.00,60.00,SummerDesignDay
10,54899721.849158819
46,11884483.805759978
70,11884483.805759978
183,29711209.514399847
207,29711209.514399847
333,3309923.5002545167
913,8633407.734917472
979,0.0
993,0.0
1017,0.0
1057,1360697.2938270127
1083,0.0
2,1, 7,21, 0, 4, 0.00,60.00,SummerDesignDay
10,55097930.79840287
46,11884483.805759978
70,11884483.805759978
183,29711209.514399847
207,29711209.514399847
333,3309636.87264587
913,8633407.82901331
979,0.0
993,0.0
1017,0.0
1057,1559192.7765838742
1083,0.0
2,1, 7,21, 0, 5, 0.00,60.00,SummerDesignDay
10,55238845.552451219
46,11884483.805759978
70,11884483.805759978
183,29711209.514399847
207,29711209.514399847
333,3309858.36266391
913,8633407.893843499
979,0.0
993,0.0
1017,0.0
1057,1699885.975783988
1083,0.0
2,1, 7,21, 0, 6, 0.00,60.00,SummerDesignDay
10,72314236.60091236
46,11884483.805759978
70,11884483.805759978
183,29711209.514399847
207,29711209.514399847
333,3310337.176592919
913,8633410.908782412
979,0.0
993,0.0
1017,0.0
1057,18774795.195377225
1083,0.0
2,1, 7,21, 0, 7, 0.00,60.00,SummerDesignDay
10,68295089.78485051
46,11884483.805759978
70,11884483.805759978
183,29711209.514399847
207,29711209.514399847
333,3309551.0262520026
913,8633410.110687765
979,0.0
993,0.0
1017,0.0
1057,14756435.327750918
1083,0.0
2,1, 7,21, 0, 8, 0.00,60.00,SummerDesignDay
10,68780976.86110085
46,11884483.805759978
70,11884483.805759978
183,29711209.514399847
207,29711209.514399847
333,3309745.421864087
913,8633409.871536192
979,0.0
993,0.0
1017,0.0
1057,15242128.24754075
1083,0.0
2,1, 7,21, 0, 9, 0.00,60.00,SummerDesignDay
10,70674668.69885299
46,11884483.805759978
70,11884483.805759978
183,29711209.514399847
207,29711209.514399847
333,3309953.580722634
913,8633409.831405128
979,0.0
993,0.0
1017,0.0
1057,17135611.966565417
1083,0.0
2,1, 7,21, 0,10, 0.00,60.00,SummerDesignDay
10,72517084.81039354
46,11884483.805759978
70,11884483.805759978
183,29711209.514399847
207,29711209.514399847
333,3309717.3003397418
913,8633409.861267318
979,0.0
993,0.0
1017,0.0
1057,18978264.328626664
1083,0.0
2,1, 7,21, 0,11, 0.00,60.00,SummerDesignDay
10,74029196.91704707
46,11884483.805759978
70,11884483.805759978
183,29711209.514399847
207,29711209.514399847
333,3310370.373682783
913,8633409.916402795
979,0.0
993,0.0
1017,0.0
1057,20489723.306801678
1083,0.0
2,1, 7,21, 0,12, 0.00,60.00,SummerDesignDay
10,75174184.77756927
46,11884483.805759978
70,11884483.805759978
183,29711209.514399847
207,29711209.514399847
333,3310154.743232103
913,8633410.00165235
979,0.0
993,0.0
1017,0.0
1057,21634926.712524997
1083,0.0
2,1, 7,21, 0,13, 0.00,60.00,SummerDesignDay
10,76538716.4699052
46,11884483.805759978
70,11884483.805759978
183,29711209.514399847
207,29711209.514399847
333,3763909.0802312397
913,8633410.084267063
979,0.0
993,0.0
1017,0.0
1057,22545703.98524707
1083,0.0
2,1, 7,21, 0,14, 0.00,60.00,SummerDesignDay
10,77698960.40691383
46,11884483.805759978
70,11884483.805759978
183,29711209.514399847
207,29711209.514399847
333,3934821.9191780167
913,8633410.15064894
979,0.0
993,0.0
1017,0.0
1057,23535035.01692705
1083,0.0
2,1, 7,21, 0,15, 0.00,60.00,SummerDesignDay
10,77849760.64037942
46,11884483.805759978
70,11884483.805759978
183,29711209.514399847
207,29711209.514399847
333,3309797.8869270805
913,8633410.190885993
979,0.0
993,0.0
1017,0.0
1057,24310859.242406519
1083,0.0
2,1, 7,21, 0,16, 0.00,60.00,SummerDesignDay
10,77645027.57648495
46,11884483.805759978
70,11884483.805759978
183,29711209.514399847
207,29711209.514399847
333,3310005.6528804895
913,8633410.193767559
979,0.0
993,0.0
1017,0.0
1057,24105918.40967709
1083,0.0
2,1, 7,21, 0,17, 0.00,60.00,SummerDesignDay
10,77117051.72783697
46,11884483.805759978
70,11884483.805759978
183,29711209.514399847
207,29711209.514399847
333,3309815.3967499376
913,8633410.155903709
979,0.0
993,0.0
1017,0.0
1057,23578132.85502351
1083,0.0
2,1, 7,21, 0,18, 0.00,60.00,SummerDesignDay
10,76204830.32201621
46,11884483.805759978
70,11884483.805759978
183,29711209.514399847
207,29711209.514399847
333,3309676.6021129109
913,8633410.08157659
979,0.0
993,0.0
1017,0.0
1057,22666050.318166898
1083,0.0
2,1, 7,21, 0,19, 0.00,60.00,SummerDesignDay
10,74675652.56490055
46,11884483.805759978
70,11884483.805759978
183,29711209.514399847
207,29711209.514399847
333,3309838.878360915
913,8633409.990404224
979,0.0
993,0.0
1017,0.0
1057,21136710.375975595
1083,0.0
2,1, 7,21, 0,20, 0.00,60.00,SummerDesignDay
10,72698727.27101876
46,11884483.805759978
70,11884483.805759978
183,29711209.514399847
207,29711209.514399847
333,3309940.6101642844
913,8633409.90375843
979,0.0
993,0.0
1017,0.0
1057,19159683.436936223
1083,0.0
2,1, 7,21, 0,21, 0.00,60.00,SummerDesignDay
10,71174125.70652654
46,11884483.805759978
70,11884483.805759978
183,29711209.514399847
207,29711209.514399847
333,3310233.449910433
913,8633409.814013157
979,0.0
993,0.0
1017,0.0
1057,17634789.12244313
1083,0.0
2,1, 7,21, 0,22, 0.00,60.00,SummerDesignDay
10,69858664.60725154
46,11884483.805759978
70,11884483.805759978
183,29711209.514399847
207,29711209.514399847
333,3309779.2555531559
913,8633409.741301615
979,0.0
993,0.0
1017,0.0
1057,16319782.290236954
1083,0.0
2,1, 7,21, 0,23, 0.00,60.00,SummerDesignDay
10,68609137.54401228
46,11884483.805759978
70,11884483.805759978
183,29711209.514399847
207,29711209.514399847
333,3309987.1611295707
913,8633409.684351892
979,0.0
993,0.0
1017,0.0
1057,15070047.378371004
1083,0.0
2,1, 7,21, 0,24, 0.00,60.00,SummerDesignDay
10,67506720.77875397
46,11884483.805759978
70,11884483.805759978
183,29711209.514399847
207,29711209.514399847
333,3309484.104648263
913,8633409.637342059
979,0.0
993,0.0
1017,0.0
1057,13968133.71660383
1083,0.0
1,SACRAMENTO-EXECUTIVE-ARP ANN HTG 99.6% CONDNS DB,  38.50,-121.50,  -8.00,   5.00
2,1, 1,21, 0, 1, 0.00,60.00,WinterDesignDay
10,8850866.169084145
46,0.0
70,0.0
183,0.0
207,0.0
333,72000.0
913,8633406.986224914
979,0.0
993,2108716.220709799
1017,2108716.220709799
1057,145459.18285923016
1083,0.0
2,1, 1,21, 0, 2, 0.00,60.00,WinterDesignDay
10,8711294.271248088
46,0.0
70,0.0
183,0.0
207,0.0
333,72000.0
913,8633406.986224914
979,0.0
993,8545392.779808173
1017,8545392.779808173
1057,5887.285023173426
1083,0.0
2,1, 1,21, 0, 3, 0.00,60.00,WinterDesignDay
10,8705406.986224914
46,0.0
70,0.0
183,0.0
207,0.0
333,72000.0
913,8633406.986224914
979,0.0
993,13935340.580215296
1017,13935340.580215296
1057,0.0
1083,0.0
2,1, 1,21, 0, 4, 0.00,60.00,WinterDesignDay
10,8705406.986224914
46,0.0
70,0.0
183,0.0
207,0.0
333,72000.0
913,8633406.986224914
979,0.0
993,16913169.809976594
1017,16913169.809976594
1057,0.0
1083,0.0
2,1, 1,21, 0, 5, 0.00,60.00,WinterDesignDay
10,8705406.986224914
46,0.0
70,0.0
183,0.0
207,0.0
333,72000.0
913,8633406.986224914
979,0.0
993,19004482.19406449
1017,19004482.19406449
1057,0.0
1083,0.0
2,1, 1,21, 0, 6, 0.00,60.00,WinterDesignDay
10,18618820.417008699
46,0.0
70,0.0
183,0.0
207,0.0
333,72000.0
913,8633411.10669986
979,9913409.31030884
993,105682161.2127957
1017,105682161.2127957
1057,0.0
1083,0.0
2,1, 1,21, 0, 7, 0.00,60.00,WinterDesignDay
10,16621560.704150472
46,0.0
70,0.0
183,0.0
207,0.0
333,72000.0
913,8633410.276545981
979,7916150.42760449
993,88387373.03410869
1017,88387373.03410869
1057,0.0
1083,0.0
2,1, 1,21, 0, 8, 0.00,60.00,WinterDesignDay
10,15582801.161270928
46,0.0
70,0.0
183,0.0
207,0.0
333,72000.0
913,8633409.844789282
979,6877391.316481648
993,83166023.18245039
1017,83166023.18245039
1057,0.0
1083,0.0
2,1, 1,21, 0, 9, 0.00,60.00,WinterDesignDay
10,15209351.255899482
46,0.0
70,0.0
183,0.0
207,0.0
333,72000.0
913,8633409.68956616
979,6503941.566333323
993,81136100.33479095
1017,81136100.33479095
1057,0.0
1083,0.0
2,1, 1,21, 0,10, 0.00,60.00,WinterDesignDay
10,15020690.160910637
46,0.0
70,0.0
183,0.0
207,0.0
333,72000.0
913,8633409.611149848
979,6315280.549760787
993,80062451.06306222
1017,80062451.06306222
1057,0.0
1083,0.0
2,1, 1,21, 0,11, 0.00,60.00,WinterDesignDay
10,14900797.08296195
46,0.0
70,0.0
183,0.0
207,0.0
333,72000.0
913,8633409.561316718
979,6195387.521645234
993,79344158.44415418
1017,79344158.44415418
1057,0.0
1083,0.0
2,1, 1,21, 0,12, 0.00,60.00,WinterDesignDay
10,14811478.902441502
46,0.0
70,0.0
183,0.0
207,0.0
333,72000.0
913,8633409.524191935
979,6106069.378249568
993,78786879.61048576
1017,78786879.61048576
1057,0.0
1083,0.0
2,1, 1,21, 0,13, 0.00,60.00,WinterDesignDay
10,14738384.11896089
46,0.0
70,0.0
183,0.0
207,0.0
333,72000.0
913,8633409.493810349
979,6032974.625150545
993,78318567.39492712
1017,78318567.39492712
1057,0.0
1083,0.0
2,1, 1,21, 0,14, 0.00,60.00,WinterDesignDay
10,14673827.543028446
46,0.0
70,0.0
183,0.0
207,0.0
333,72000.0
913,8633409.466977638
979,5968418.076050808
993,77900241.11398898
1017,77900241.11398898
1057,0.0
1083,0.0
2,1, 1,21, 0,15, 0.00,60.00,WinterDesignDay
10,14614716.390922185
46,0.0
70,0.0
183,0.0
207,0.0
333,72000.0
913,8633409.442408298
979,5909306.948513886
993,77516054.71135012
1017,77516054.71135012
1057,0.0
1083,0.0
2,1, 1,21, 0,16, 0.00,60.00,WinterDesignDay
10,14559854.12356086
46,0.0
70,0.0
183,0.0
207,0.0
333,72000.0
913,8633409.41960499
979,5854444.703955867
993,77159789.92029816
1017,77159789.92029816
1057,0.0
1083,0.0
2,1, 1,21, 0,17, 0.00,60.00,WinterDesignDay
10,14508459.136330316
46,0.0
70,0.0
183,0.0
207,0.0
333,72000.0
913,8633409.39824285
979,5803049.738087466
993,76827141.85009472
1017,76827141.85009472
1057,0.0
1083,0.0
2,1, 1,21, 0,18, 0.00,60.00,WinterDesignDay
10,14460005.402483466
46,0.0
70,0.0
183,0.0
207,0.0
333,72000.0
913,8633409.378103229
979,5754596.024380238
993,76515078.40118456
1017,76515078.40118456
1057,0.0
1083,0.0
2,1, 1,21, 0,19, 0.00,60.00,WinterDesignDay
10,14414751.618252423
46,0.0
70,0.0
183,0.0
207,0.0
333,72000.0
913,8633409.359293655
979,5709342.25895877
993,76224985.95321179
1017,76224985.95321179
1057,0.0
1083,0.0
2,1, 1,21, 0,20, 0.00,60.00,WinterDesignDay
10,14372814.546813887
46,0.0
70,0.0
183,0.0
207,0.0
333,72000.0
913,8633409.34186266
979,5667405.204951227
993,75957033.49110949
1017,75957033.49110949
1057,0.0
1083,0.0
2,1, 1,21, 0,21, 0.00,60.00,WinterDesignDay
10,14332276.387315005
46,0.0
70,0.0
183,0.0
207,0.0
333,72000.0
913,8633409.325013118
979,5626867.062301886
993,75699972.23135448
1017,75699972.23135448
1057,0.0
1083,0.0
2,1, 1,21, 0,22, 0.00,60.00,WinterDesignDay
10,14293192.383711098
46,0.0
70,0.0
183,0.0
207,0.0
333,72000.0
913,8633409.30876799
979,5587783.074943108
993,75454385.45585037
1017,75454385.45585037
1057,0.0
1083,0.0
2,1, 1,21, 0,23, 0.00,60.00,WinterDesignDay
10,14255678.249358748
46,0.0
70,0.0
183,0.0
207,0.0
333,72000.0
913,8633409.293175376
979,5550268.956183372
993,75220775.16653505
1017,75220775.16653505
1057,0.0
1083,0.0
2,1, 1,21, 0,24, 0.00,60.00,WinterDesignDay
10,14219726.804119733
46,0.0
70,0.0
183,0.0
207,0.0
333,72000.0
913,8633409.278232286
979,5514317.5258874469
993,74998845.0313431
1017,74998845.0313431
1057,0.0
1083,0.0
1,SACRAMENTO-EXECUTIVE-ARP AUG CLG 0.4% CONDNS DB=>MCWB,  38.50,-121.50,  -8.00,   5.00
2,1, 8,21, 0, 1, 0.00,60.00,SummerDesignDay
10,54695977.72750243
46,11884483.805759978
70,11884483.805759978
183,29711209.514399847
207,29711209.514399847
333,3304255.410957922
913,8633407.271182636
979,0.0
993,674533.6739964348
1017,674533.6739964348
1057,1162621.7252020539
1083,0.0
2,1, 8,21, 0, 2, 0.00,60.00,SummerDesignDay
10,57868263.4734566
46,11884483.805759978
70,11884483.805759978
183,29711209.514399847
207,29711209.514399847
333,3304166.763738231
913,8633407.9087453
979,0.0
993,0.0
1017,0.0
1057,4334995.480813244
1083,0.0
2,1, 8,21, 0, 3, 0.00,60.00,SummerDesignDay
10,58578404.143484469
46,11884483.805759978
70,11884483.805759978
183,29711209.514399847
207,29711209.514399847
333,3304257.7839324765
913,8633408.070963063
979,0.0
993,0.0
1017,0.0
1057,5045044.968429103
1083,0.0
2,1, 8,21, 0, 4, 0.00,60.00,SummerDesignDay
10,58829305.813999418
46,11884483.805759978
70,11884483.805759978
183,29711209.514399847
207,29711209.514399847
333,3304348.3342322336
913,8633408.164438816
979,0.0
993,0.0
1017,0.0
1057,5295855.995168546
1083,0.0
2,1, 8,21, 0, 5, 0.00,60.00,SummerDesignDay
10,58939761.2093471
46,11884483.805759978
70,11884483.805759978
183,29711209.514399847
207,29711209.514399847
333,3304438.418181492
913,8633408.226414105
979,0.0
993,0.0
1017,0.0
1057,5406221.244591683
1083,0.0
2,1, 8,21, 0, 6, 0.00,60.00,SummerDesignDay
10,79365232.032764
46,11884483.805759978
70,11884483.805759978
183,29711209.514399847
207,29711209.514399847
333,3304912.688301618
913,8633411.06823634
979,0.0
993,0.0
1017,0.0
1057,25831214.95606623
1083,0.0
2,1, 8,21, 0, 7, 0.00,60.00,SummerDesignDay
10,74650806.60411358
46,11884483.805759978
70,11884483.805759978
183,29711209.514399847
207,29711209.514399847
333,3304018.772079559
913,8633410.404554474
979,0.0
993,0.0
1017,0.0
1057,21117684.107319729
1083,0.0
2,1, 8,21, 0, 8, 0.00,60.00,SummerDesignDay
10,74428129.7809365
46,11884483.805759978
70,11884483.805759978
183,29711209.514399847
207,29711209.514399847
333,3303975.6727457458
913,8633410.13235598
979,0.0
993,0.0
1017,0.0
1057,20895050.65567495
1083,0.0
2,1, 8,21, 0, 9, 0.00,60.00,SummerDesignDay
10,75801527.22832978
46,11884483.805759978
70,11884483.805759978
183,29711209.514399847
207,29711209.514399847
333,3304076.810970898
913,8633410.134039352
979,0.0
993,0.0
1017,0.0
1057,22268346.96315971
1083,0.0
2,1, 8,21, 0,10, 0.00,60.00,SummerDesignDay
10,78913134.02496846
46,11884483.805759978
70,11884483.805759978
183,29711209.514399847
207,29711209.514399847
333,3304154.1473476865
913,8633410.226665698
979,0.0
993,0.0
1017,0.0
1057,25379876.33079526
1083,0.0
2,1, 8,21, 0,11, 0.00,60.00,SummerDesignDay
10,82170818.00669202
46,11884483.805759978
70,11884483.805759978
183,29711209.514399847
207,29711209.514399847
333,3304528.0708717538
913,8633410.348782709
979,0.0
993,0.0
1017,0.0
1057,28637186.26687774
1083,0.0
2,1, 8,21, 0,12, 0.00,60.00,SummerDesignDay
10,84787905.0199144
46,11884483.805759978
70,11884483.805759978
183,29711209.514399847
207,29711209.514399847
333,3304712.515503769
913,8633410.476916425
979,0.0
993,0.0
1017,0.0
1057,31254088.70733439
1083,0.0
2,1, 8,21, 0,13, 0.00,60.00,SummerDesignDay
10,86543305.00312685
46,11884483.805759978
70,11884483.805759978
183,29711209.514399847
207,29711209.514399847
333,3304439.59351125
913,8633410.583148716
979,0.0
993,0.0
1017,0.0
1057,33009761.50630705
1083,0.0
2,1, 8,21, 0,14, 0.00,60.00,SummerDesignDay
10,87991019.76016876
46,11884483.805759978
70,11884483.805759978
183,29711209.514399847
207,29711209.514399847
333,3304113.683179675
913,8633410.66675668
979,0.0
993,0.0
1017,0.0
1057,34457802.09007259
1083,0.0
2,1, 8,21, 0,15, 0.00,60.00,SummerDesignDay
10,88927105.87442149
46,11884483.805759978
70,11884483.805759978
183,29711209.514399847
207,29711209.514399847
333,3303952.6062299788
913,8633410.716672909
979,0.0
993,0.0
1017,0.0
1057,35394049.23135878
1083,0.0
2,1, 8,21, 0,16, 0.00,60.00,SummerDesignDay
10,88808119.46028608
46,11884483.805759978
70,11884483.805759978
183,29711209.514399847
207,29711209.514399847
333,3303972.8334955407
913,8633410.718076043
979,0.0
993,0.0
1017,0.0
1057,35275042.588554669
1083,0.0
2,1, 8,21, 0,17, 0.00,60.00,SummerDesignDay
10,87663691.62343624
46,11884483.805759978
70,11884483.805759978
183,29711209.514399847
207,29711209.514399847
333,3304078.222102192
913,8633410.666836387
979,0.0
993,0.0
1017,0.0
1057,34130509.41433784
1083,0.0
2,1, 8,21, 0,18, 0.00,60.00,SummerDesignDay
10,85617774.61653076
46,11884483.805759978
70,11884483.805759978
183,29711209.514399847
207,29711209.514399847
333,3304169.7005181948
913,8633410.570111637
979,0.0
993,0.0
1017,0.0
1057,32084501.025741109
1083,0.0
2,1, 8,21, 0,19, 0.00,60.00,SummerDesignDay
10,82084076.16634774
46,11884483.805759978
70,11884483.805759978
183,29711209.514399847
207,29711209.514399847
333,3304260.5512228414
913,8633410.435028786
979,0.0
993,0.0
1017,0.0
1057,28550711.859936295
1083,0.0
2,1, 8,21, 0,20, 0.00,60.00,SummerDesignDay
10,78745341.05215103
46,11884483.805759978
70,11884483.805759978
183,29711209.514399847
207,29711209.514399847
333,3304634.1633905938
913,8633410.291147639
979,0.0
993,0.0
1017,0.0
1057,25211603.277452984
1083,0.0
2,1, 8,21, 0,21, 0.00,60.00,SummerDesignDay
10,76323563.45971062
46,11884483.805759978
70,11884483.805759978
183,29711209.514399847
207,29711209.514399847
333,3304283.921772324
913,8633410.162475249
979,0.0
993,0.0
1017,0.0
1057,22790176.05530321
1083,0.0
2,1, 8,21, 0,22, 0.00,60.00,SummerDesignDay
10,74511617.87102132
46,11884483.805759978
70,11884483.805759978
183,29711209.514399847
207,29711209.514399847
333,3304006.3031185597
913,8633410.058341127
979,0.0
993,0.0
1017,0.0
1057,20978508.18940182
1083,0.0
2,1, 8,21, 0,23, 0.00,60.00,SummerDesignDay
10,73518321.21835697
46,11884483.805759978
70,11884483.805759978
183,29711209.514399847
207,29711209.514399847
333,3303908.7812631076
913,8633409.972345144
979,0.0
993,0.0
1017,0.0
1057,19985309.144588915
1083,0.0
2,1, 8,21, 0,24, 0.00,60.00,SummerDesignDay
10,72713638.88164765
46,11884483.805759978
70,11884483.805759978
183,29711209.514399847
207,29711209.514399847
333,3303988.5218894018
913,8633409.899026242
979,0.0
993,0.0
1017,0.0
1057,19180547.140572177
1083,0.0
1,SACRAMENTO-EXECUTIVE-ARP JUL CLG 0.4% CONDNS DB=>MCWB,  38.50,-121.50,  -8.00,   5.00
2,1, 7,21, 0, 1, 0.00,60.00,SummerDesignDay
10,55341253.90444536
46,11884483.805759978
70,11884483.805759978
183,29711209.514399847
207,29711209.514399847
333,3310218.4953953765
913,8633407.256202706
979,0.0
993,807588.5761979214
1017,807588.5761979214
1057,1801934.8326874532
1083,0.0
2,1, 7,21, 0, 2, 0.00,60.00,SummerDesignDay
10,59081609.73876245
46,11884483.805759978
70,11884483.805759978
183,29711209.514399847
207,29711209.514399847
333,3309972.3339714796
913,8633407.979195739
979,0.0
993,0.0
1017,0.0
1057,5542536.105435405
1083,0.0
2,1, 7,21, 0, 3, 0.00,60.00,SummerDesignDay
10,59831111.34221972
46,11884483.805759978
70,11884483.805759978
183,29711209.514399847
207,29711209.514399847
333,3309923.5619985398
913,8633408.135315177
979,0.0
993,0.0
1017,0.0
1057,6292086.32474618
1083,0.0
2,1, 7,21, 0, 4, 0.00,60.00,SummerDesignDay
10,60104002.3925273
46,11884483.805759978
70,11884483.805759978
183,29711209.514399847
207,29711209.514399847
333,3309636.8583442897
913,8633408.226921857
979,0.0
993,0.0
1017,0.0
1057,6565263.987101337
1083,0.0
2,1, 7,21, 0, 5, 0.00,60.00,SummerDesignDay
10,60231485.743721988
46,11884483.805759978
70,11884483.805759978
183,29711209.514399847
207,29711209.514399847
333,3309858.3453789849
913,8633408.286893076
979,0.0
993,0.0
1017,0.0
1057,6692525.791290106
1083,0.0
2,1, 7,21, 0, 6, 0.00,60.00,SummerDesignDay
10,80307278.13555688
46,11884483.805759978
70,11884483.805759978
183,29711209.514399847
207,29711209.514399847
333,3310346.313952175
913,8633411.069481422
979,0.0
993,0.0
1017,0.0
1057,26767827.43196346
1083,0.0
2,1, 7,21, 0, 7, 0.00,60.00,SummerDesignDay
10,76062201.6096719
46,11884483.805759978
70,11884483.805759978
183,29711209.514399847
207,29711209.514399847
333,3309551.0623466868
913,8633410.487154384
979,0.0
993,0.0
1017,0.0
1057,22523546.740011
1083,0.0
2,1, 7,21, 0, 8, 0.00,60.00,SummerDesignDay
10,75820784.10767149
46,11884483.805759978
70,11884483.805759978
183,29711209.514399847
207,29711209.514399847
333,3309745.0361176265
913,8633410.260006026
979,0.0
993,0.0
1017,0.0
1057,22281935.49138801
1083,0.0
2,1, 7,21, 0, 9, 0.00,60.00,SummerDesignDay
10,78116967.8591511
46,11884483.805759978
70,11884483.805759978
183,29711209.514399847
207,29711209.514399847
333,3309953.197864825
913,8633410.275306367
979,0.0
993,0.0
1017,0.0
1057,24577911.06582009
1083,0.0
2,1, 7,21, 0,10, 0.00,60.00,SummerDesignDay
10,81217270.66466245
46,11884483.805759978
70,11884483.805759978
183,29711209.514399847
207,29711209.514399847
333,3309717.219693864
913,8633410.369663099
979,0.0
993,0.0
1017,0.0
1057,27678449.755145667
1083,0.0
2,1, 7,21, 0,11, 0.00,60.00,SummerDesignDay
10,84303392.07948976
46,11884483.805759978
70,11884483.805759978
183,29711209.514399847
207,29711209.514399847
333,3310369.9950164596
913,8633410.491572645
979,0.0
993,0.0
1017,0.0
1057,30763918.27274083
1083,0.0
2,1, 7,21, 0,12, 0.00,60.00,SummerDesignDay
10,86839530.56937686
46,11884483.805759978
70,11884483.805759978
183,29711209.514399847
207,29711209.514399847
333,3309785.33840667
913,8633410.614924184
979,0.0
993,0.0
1017,0.0
1057,33300641.29588618
1083,0.0
2,1, 7,21, 0,13, 0.00,60.00,SummerDesignDay
10,88948774.0919667
46,11884483.805759978
70,11884483.805759978
183,29711209.514399847
207,29711209.514399847
333,3764155.098565665
913,8633410.716474869
979,0.0
993,0.0
1017,0.0
1057,34955514.956766348
1083,0.0
2,1, 7,21, 0,14, 0.00,60.00,SummerDesignDay
10,90369041.98823156
46,11884483.805759978
70,11884483.805759978
183,29711209.514399847
207,29711209.514399847
333,3934575.85870684
913,8633410.798047534
979,0.0
993,0.0
1017,0.0
1057,36205362.01131736
1083,0.0
2,1, 7,21, 0,15, 0.00,60.00,SummerDesignDay
10,90542631.30833289
46,11884483.805759978
70,11884483.805759978
183,29711209.514399847
207,29711209.514399847
333,3309797.955798097
913,8633410.849678426
979,0.0
993,0.0
1017,0.0
1057,37003729.182696539
1083,0.0
2,1, 7,21, 0,16, 0.00,60.00,SummerDesignDay
10,90359705.3898785
46,11884483.805759978
70,11884483.805759978
183,29711209.514399847
207,29711209.514399847
333,3310005.7212362389
913,8633410.857336736
979,0.0
993,0.0
1017,0.0
1057,36820595.491145718
1083,0.0
2,1, 7,21, 0,17, 0.00,60.00,SummerDesignDay
10,89550196.43332605
46,11884483.805759978
70,11884483.805759978
183,29711209.514399847
207,29711209.514399847
333,3309815.1992812699
913,8633410.815691626
979,0.0
993,0.0
1017,0.0
1057,36011277.09819335
1083,0.0
2,1, 7,21, 0,18, 0.00,60.00,SummerDesignDay
10,88163219.38453755
46,11884483.805759978
70,11884483.805759978
183,29711209.514399847
207,29711209.514399847
333,3309676.7082108717
913,8633410.727306832
979,0.0
993,0.0
1017,0.0
1057,34624438.62886003
1083,0.0
2,1, 7,21, 0,19, 0.00,60.00,SummerDesignDay
10,85229111.75752078
46,11884483.805759978
70,11884483.805759978