Program Version,EnergyPlus, Version 9.0.1-bb7ca4f0da, YMD=2019.12.17 17:30
1,5,Environment Title[],Latitude[deg],Longitude[deg],Time Zone[],Elevation[m]
2,8,Day of Simulation[],Month[],Day of Month[],DST Indicator[1=yes 0=no],Hour[],StartMinute[],EndMinute[],DayType
3,5,Cumulative Day of Simulation[],Month[],Day of Month[],DST Indicator[1=yes 0=no],DayType  ! When Daily Meters Requested
4,2,Cumulative Days of Simulation[],Month[]  ! When Monthly Meters Requested
5,1,Cumulative Days of Simulation[] ! When Run Period Meters Requested
6,1,Calendar Year of Simulation[] ! When Annual Meters Requested
4121,1,Fans:Electricity [J] !Hourly
2365,1,WaterSystems:Gas [J] !Hourly
10,1,Electricity:Facility [J] !Hourly
46,1,InteriorLights:Electricity [J] !Hourly
992,1,InteriorEquipment:Electricity [J] !Hourly
4480,1,Pumps:Electricity [J] !Hourly
1016,1,Receptacle:InteriorEquipment:Electricity [J] !Hourly
4354,1,Cooling:Electricity [J] !Hourly
4243,1,Heating:Electricity [J] !Hourly
4230,1,Heating:Gas [J] !Hourly
2227,1,WaterSystems:Electricity [J] !Hourly
1496,1,Gas:Facility [J] !Hourly
1532,1,InteriorEquipment:Gas [J] !Hourly
1556,1,Receptacle:InteriorEquipment:Gas [J] !Hourly
70,1,ComplianceLtg:InteriorLights:Electricity [J] !Hourly
345,1,NonComplianceLtg:InteriorLights:Electricity [J] !Hourly
4133,1,General:Fans:Electricity [J] !Hourly
4170,1,ProcessMotors:Fans:Electricity [J] !Hourly
End of Data Dictionary
1,SAN-DIEGO-LINDBERGH-FIEL ANN CLG 0.4% CONDNS DB=>MCWB,  32.73,-117.17,  -8.00,   4.00
2,1, 8,21, 0, 1, 0.00,60.00,SummerDesignDay
10,693407230.1803045
46,249737579.99999974
70,96701579.99999997
345,153035999.9999997
992,231449399.99999977
1016,231449399.99999977
1496,63803965.6432649
1532,57764642.17263899
1556,57764642.17263899
2227,17736221.840623034
2365,6039323.470625903
4121,238.9934126179766
4133,40.45182265222819
4170,146.49394504991597
4230,0.0
4243,0.0
4354,194483789.34626887
4480,0.0
2,1, 8,21, 0, 2, 0.00,60.00,SummerDesignDay
10,690961238.9108567
46,249737579.99999974
70,96701579.99999997
345,153035999.9999997
992,231449399.99999977
1016,231449399.99999977
1496,64133870.816873397
1532,57764642.17263899
1556,57764642.17263899
2227,17797715.768466239
2365,6369228.644234405
4121,238.4760930933318
4133,40.46540595491925
4170,146.49394504991597
4230,0.0
4243,0.0
4354,191976304.66629745
4480,0.0
2,1, 8,21, 0, 3, 0.00,60.00,SummerDesignDay
10,690485057.8284108
46,249737579.99999974
70,96701579.99999997
345,153035999.9999997
992,231449399.99999977
1016,231449399.99999977
1496,64137918.363923389
1532,57764642.17263899
1556,57764642.17263899
2227,18753140.1244603
2365,6373276.19128439
4121,238.29053299564817
4133,40.47405204614212
4170,146.49394504991597
4230,0.0
4243,0.0
4354,190544699.41341753
4480,0.0
2,1, 8,21, 0, 4, 0.00,60.00,SummerDesignDay
10,688209843.879697
46,249737579.99999974
70,96701579.99999997
345,153035999.9999997
992,231449399.99999977
1016,231449399.99999977
1496,63803881.00270396
1532,57764642.17263899
1556,57764642.17263899
2227,17736270.80938175
2365,6039238.8300649649
4121,238.13482065619699
4133,40.48186901260217
4170,146.49394504991597
4230,0.0
4243,0.0
4354,189286354.9354947
4480,0.0
2,1, 8,21, 0, 5, 0.00,60.00,SummerDesignDay
10,687640933.1852634
46,249737579.99999974
70,96701579.99999997
345,153035999.9999997
992,231449399.99999977
1016,231449399.99999977
1496,64146988.619482498
1532,57764642.17263899
1556,57764642.17263899
2227,18173018.129899686
2365,6382346.446843507
4121,238.00604449838625
4133,40.48845961927054
4170,146.49394504991597
4230,0.0
4243,0.0
4354,188280697.0493192
4480,0.0
2,1, 8,21, 0, 6, 0.00,60.00,SummerDesignDay
10,706888946.9741731
46,249737579.99999974
70,96701579.99999997
345,153035999.9999997
992,231449399.99999977
1016,231449399.99999977
1496,64124976.41482663
1532,57764642.17263899
1556,57764642.17263899
2227,18378232.60684262
2365,6360334.242187641
4121,246.9409570321617
4133,47.02249280767238
4170,146.49394504991597
4230,0.0
4243,0.0
4354,207323487.42637328
4480,0.0
2,1, 8,21, 0, 7, 0.00,60.00,SummerDesignDay
10,768918631.4488945
46,249737579.99999974
70,96701579.99999997
345,153035999.9999997
992,231449399.99999977
1016,231449399.99999977
1496,63813685.15359103
1532,57764642.17263899
1556,57764642.17263899
2227,17736837.650566799
2365,6049042.980952036
4121,290.07152807649319
4133,79.45971134010172
4170,146.49394504991597
4230,0.0
4243,0.0
4354,269994523.7267997
4480,0.0
2,1, 8,21, 0, 8, 0.00,60.00,SummerDesignDay
10,780370779.7289994
46,249737579.99999974
70,96701579.99999997
345,153035999.9999997
992,231449399.99999977
1016,231449399.99999977
1496,64150406.46417885
1532,57764642.17263899
1556,57764642.17263899
2227,18546734.251375773
2365,6385764.29153986
4121,282.70718733546229
4133,62.772074126696328
4170,146.49394504991597
4230,0.0
4243,0.0
4354,280636782.7704363
4480,0.0
2,1, 8,21, 0, 9, 0.00,60.00,SummerDesignDay
10,801146964.0528464
46,249737579.99999974
70,96701579.99999997
345,153035999.9999997
992,231449399.99999977
1016,231449399.99999977
1496,64111677.96421873
1532,57764642.17263899
1556,57764642.17263899
2227,18004809.12066386
2365,6347035.791579745
4121,290.2418194919991
4133,60.81185410914703
4170,146.49394504991597
4230,0.0
4243,0.0
4354,301954884.69036307
4480,0.0
2,1, 8,21, 0,10, 0.00,60.00,SummerDesignDay
10,816106694.3967249
46,249737579.99999974
70,96701579.99999997
345,153035999.9999997
992,231449399.99999977
1016,231449399.99999977
1496,63826544.02662067
1532,57764642.17263899
1556,57764642.17263899
2227,17736102.770880134
2365,6061901.853981687
4121,295.4156549800825
4133,60.7389687309672
4170,146.49394504991597
4230,0.0
4243,0.0
4354,317183316.2101899
4480,0.0
2,1, 8,21, 0,11, 0.00,60.00,SummerDesignDay
10,824346575.756136
46,249737579.99999974
70,96701579.99999997
345,153035999.9999997
992,231449399.99999977
1016,231449399.99999977
1496,64150408.33385926
1532,57764642.17263899
1556,57764642.17263899
2227,18815624.96761571
2365,6385766.161220268
4121,296.4333149563361
4133,60.48297355212816
4170,146.49394504991597
4230,0.0
4243,0.0
4354,324343674.35520538
4480,0.0
2,1, 8,21, 0,12, 0.00,60.00,SummerDesignDay
10,827405361.8120382
46,249737579.99999974
70,96701579.99999997
345,153035999.9999997
992,231449399.99999977
1016,231449399.99999977
1496,64098756.81779721
1532,57764642.17263899
1556,57764642.17263899
2227,17736708.607846288
2365,6334114.6451582149
4121,296.43977969744778
4133,60.233509296181839
4170,146.49394504991597
4230,0.0
4243,0.0
4354,328481376.7644123
4480,0.0
2,1, 8,21, 0,13, 0.00,60.00,SummerDesignDay
10,831995065.2716653
46,249737579.99999974
70,96701579.99999997
345,153035999.9999997
992,231449399.99999977
1016,231449399.99999977
1496,63839414.28409485
1532,57764642.17263899
1556,57764642.17263899
2227,17901951.691029926
2365,6074772.1114558619
4121,297.18645736012027
4133,60.17006391955785
4170,146.49394504991597
4230,0.0
4243,0.0
4354,332905836.3941778
4480,0.0
2,1, 8,21, 0,14, 0.00,60.00,SummerDesignDay
10,842739329.4468099
46,249737579.99999974
70,96701579.99999997
345,153035999.9999997
992,231449399.99999977
1016,231449399.99999977
1496,64150411.61433667
1532,57764642.17263899
1556,57764642.17263899
2227,18648710.87320884
2365,6385769.441697685
4121,301.60676291749
4133,60.87562671177264
4170,146.49394504991597
4230,0.0
4243,0.0
4354,342903336.96683827
4480,0.0
2,1, 8,21, 0,15, 0.00,60.00,SummerDesignDay
10,852274888.9773593
46,249737579.99999974
70,96701579.99999997
345,153035999.9999997
992,231449399.99999977
1016,231449399.99999977
1496,64085842.30837339
1532,57764642.17263899
1556,57764642.17263899
2227,17736159.559625783
2365,6321200.135734404
4121,307.1922316264778
4133,62.02889719381595
4170,146.49394504991597
4230,0.0
4243,0.0
4354,353351442.2255018
4480,0.0
2,1, 8,21, 0,16, 0.00,60.00,SummerDesignDay
10,853852728.9259619
46,249737579.99999974
70,96701579.99999997
345,153035999.9999997
992,231449399.99999977
1016,231449399.99999977
1496,63852282.26088267
1532,57764642.17263899
1556,57764642.17263899
2227,18277340.75007844
2365,6087640.088243676
4121,308.4612100872683
4133,62.3049012145943
4170,146.49394504991597
4230,0.0
4243,0.0
4354,354388099.71467337
4480,0.0
2,1, 8,21, 0,17, 0.00,60.00,SummerDesignDay
10,842594631.1154244
46,249737579.99999974
70,96701579.99999997
345,153035999.9999997
992,231449399.99999977
1016,231449399.99999977
1496,64150416.30078216
1532,57764642.17263899
1556,57764642.17263899
2227,18273431.8969595
2365,6385774.128143176
4121,303.5098748369534
4133,61.59600063057004
4170,146.49394504991597
4230,0.0
4243,0.0
4354,343133915.7085901
4480,0.0
2,1, 8,21, 0,18, 0.00,60.00,SummerDesignDay
10,822011435.4765327
46,249737579.99999974
70,96701579.99999997
345,153035999.9999997
992,231449399.99999977
1016,231449399.99999977
1496,64072931.80246274
1532,57764642.17263899
1556,57764642.17263899
2227,17735993.258294658
2365,6308289.629823757
4121,293.59069561814189
4133,59.38061134034503
4170,146.49394504991597
4230,0.0
4243,0.0
4354,323088168.6275425
4480,0.0
2,1, 8,21, 0,19, 0.00,60.00,SummerDesignDay
10,788332709.9077044
46,249737579.99999974
70,96701579.99999997
345,153035999.9999997
992,231449399.99999977
1016,231449399.99999977
1496,63865150.565540198
1532,57764642.17263899
1556,57764642.17263899
2227,18652290.47313406
2365,6100508.392901201
4121,276.51867552722487
4133,56.41233609655002
4170,146.49394504991597
4230,0.0
4243,0.0
4354,288493162.9158946
4480,0.0
2,1, 8,21, 0,20, 0.00,60.00,SummerDesignDay
10,765104922.0737989
46,249737579.99999974
70,96701579.99999997
345,153035999.9999997
992,231449399.99999977
1016,231449399.99999977
1496,64150422.38952705
1532,57764642.17263899
1556,57764642.17263899
2227,17899714.930679304
2365,6385780.21688806
4121,266.07744781381077
4133,54.28598900678503
4170,146.49394504991597
4230,0.0
4243,0.0
4354,266017961.0656718
4480,0.0
2,1, 8,21, 0,21, 0.00,60.00,SummerDesignDay
10,751142977.890205
46,249737579.99999974
70,96701579.99999997
345,153035999.9999997
992,231449399.99999977
1016,231449399.99999977
1496,64067056.16004405
1532,57764642.17263899
1556,57764642.17263899
2227,17736108.39564366
2365,6295380.497416499
4121,260.0610391119429
4133,53.0183773946127
4170,146.49394504991597
4230,7033.489988565809
4243,0.0
4354,252219629.43352247
4480,0.0
2,1, 8,21, 0,22, 0.00,60.00,SummerDesignDay
10,721872043.424297
46,249737579.99999974
70,96701579.99999997
345,153035999.9999997
992,231449399.99999977
1016,231449399.99999977
1496,63878293.85288127
1532,57764642.17263899
1556,57764642.17263899
2227,18816738.138435496
2365,6113651.680242273
4121,247.6154455905919
4133,43.74538323840376
4170,146.49394504991597
4230,0.0
4243,0.0
4354,221868077.6704158
4480,0.0
2,1, 8,21, 0,23, 0.00,60.00,SummerDesignDay
10,713800667.3435929
46,249737579.99999974
70,96701579.99999997
345,153035999.9999997
992,231449399.99999977
1016,231449399.99999977
1496,64150640.60253066
1532,57764642.17263899
1556,57764642.17263899
2227,17736009.05117465
2365,6385998.4298916659
4121,245.16150960043815
4133,43.5665751691968
4170,146.49394504991597
4230,0.0
4243,0.0
4354,214877433.13090853
4480,0.0
2,1, 8,21, 0,24, 0.00,60.00,SummerDesignDay
10,708336692.1052791
46,249737579.99999974
70,96701579.99999997
345,153035999.9999997
992,231449399.99999977
1016,231449399.99999977
1496,64046924.10757227
1532,57764642.17263899
1556,57764642.17263899
2227,18006957.114710776
2365,6282281.934933281
4121,243.28727076103764
4133,43.42369041761103
4170,146.49394504991597
4230,0.0
4243,0.0
4354,209142511.7032975
4480,0.0
1,SAN-DIEGO-LINDBERGH-FIEL ANN CLG 0.4% CONDNS DP=>MCDB,  32.73,-117.17,  -8.00,   4.00
2,1, 8,21, 0, 1, 0.00,60.00,SummerDesignDay
10,681904016.429748
46,249737579.99999974
70,96701579.99999997
345,153035999.9999997
992,231449399.99999977
1016,231449399.99999977
1496,63803898.91692668
1532,57764642.17263899
1556,57764642.17263899
2227,17736483.831793835
2365,6039256.744287698
4121,230.58889148831538
4133,40.4336679631007
4170,146.49394504991597
4230,0.0
4243,0.0
4354,182980322.00906254
4480,0.0
2,1, 8,21, 0, 2, 0.00,60.00,SummerDesignDay
10,677013696.9387231
46,249737579.99999974
70,96701579.99999997
345,153035999.9999997
992,231449399.99999977
1016,231449399.99999977
1496,64134032.13556947
1532,57764642.17263899
1556,57764642.17263899
2227,17797081.32693487
2365,6369389.962930474
4121,229.60653486420413
4133,40.44049846638892
4170,146.49394504991597
4230,0.0
4243,0.0
4354,178029406.00525359
4480,0.0
2,1, 8,21, 0, 3, 0.00,60.00,SummerDesignDay
10,674520649.4061058
46,249737579.99999974
70,96701579.99999997
345,153035999.9999997
992,231449399.99999977
1016,231449399.99999977
1496,64137758.276389788
1532,57764642.17263899
1556,57764642.17263899
2227,18753776.360021384
2365,6373116.103750796
4121,228.95466101131965
4133,40.44564511681647
4170,146.49394504991597
4230,0.0
4243,0.0
4354,174579664.0914234
4480,0.0
2,1, 8,21, 0, 4, 0.00,60.00,SummerDesignDay
10,670486328.0520929
46,249737579.99999974
70,96701579.99999997
345,153035999.9999997
992,231449399.99999977
1016,231449399.99999977
1496,63803881.82031409
1532,57764642.17263899
1556,57764642.17263899
2227,17736271.572840357
2365,6039239.647675097
4121,228.40381018566044
4133,40.4522696560208
4170,146.49394504991597
4230,0.0
4243,0.0
4354,171562848.0754423
4480,0.0
2,1, 8,21, 0, 5, 0.00,60.00,SummerDesignDay
10,668475085.0554892
46,249737579.99999974
70,96701579.99999997
345,153035999.9999997
992,231449399.99999977
1016,231449399.99999977
1496,64147145.766753178
1532,57764642.17263899
1556,57764642.17263899
2227,18172382.560964884
2365,6382503.594114184
4121,227.94196925071737
4133,40.45698707753093
4170,146.49394504991597
4230,0.0
4243,0.0
4354,169115494.5525552
4480,0.0
2,1, 8,21, 0, 6, 0.00,60.00,SummerDesignDay
10,688363077.6920505
46,249737579.99999974
70,96701579.99999997
345,153035999.9999997
992,231449399.99999977
1016,231449399.99999977
1496,64124772.65263015
1532,57764642.17263899
1556,57764642.17263899
2227,18378495.1199521
2365,6360130.47999117
4121,235.74272858226113
4133,45.43379193419189
4170,146.49394504991597
4230,0.0
4243,0.0
4354,188797366.82936985
4480,0.0
2,1, 8,21, 0, 7, 0.00,60.00,SummerDesignDay
10,760105580.9978752
46,249737579.99999974
70,96701579.99999997
345,153035999.9999997
992,231449399.99999977
1016,231449399.99999977
1496,63903688.96703424
1532,57764642.17263899
1556,57764642.17263899
2227,17736615.718743117
2365,6049195.623979367
4121,270.44206137876247
4133,66.40875101109168
4170,146.49394504991597
4230,89851.17041588656
4243,0.0
4354,261181714.83707059
4480,0.0
2,1, 8,21, 0, 8, 0.00,60.00,SummerDesignDay
10,780686001.8932102
46,249737579.99999974
70,96701579.99999997
345,153035999.9999997
992,231449399.99999977
1016,231449399.99999977
1496,64150406.47406984
1532,57764642.17263899
1556,57764642.17263899
2227,18547055.791308743
2365,6385764.301430854
4121,273.1975856562604
4133,56.160489967539337
4170,146.49394504991597
4230,0.0
4243,0.0
4354,280951692.9043158
4480,0.0
2,1, 8,21, 0, 9, 0.00,60.00,SummerDesignDay
10,811727743.2597132
46,249737579.99999974
70,96701579.99999997
345,153035999.9999997
992,231449399.99999977
1016,231449399.99999977
1496,64111568.54394242
1532,57764642.17263899
1556,57764642.17263899
2227,18004488.85057366
2365,6346926.371303431
4121,285.6963346866263
4133,56.04612953481309
4170,146.49394504991597
4230,0.0
4243,0.0
4354,312535988.7128048
4480,0.0
2,1, 8,21, 0,10, 0.00,60.00,SummerDesignDay
10,831069080.7503659
46,249737579.99999974
70,96701579.99999997
345,153035999.9999997
992,231449399.99999977
1016,231449399.99999977
1496,63826652.99773203
1532,57764642.17263899
1556,57764642.17263899
2227,17736103.017098916
2365,6062010.825093038
4121,293.6114172551605
4133,57.015113040028499
4170,146.49394504991597
4230,0.0
4243,0.0
4354,332145704.12184956
4480,0.0
2,1, 8,21, 0,11, 0.00,60.00,SummerDesignDay
10,840994703.7996638
46,249737579.99999974
70,96701579.99999997
345,153035999.9999997
992,231449399.99999977
1016,231449399.99999977
1496,64150408.355716999
1532,57764642.17263899
1556,57764642.17263899
2227,18815624.195820307
2365,6385766.183078004
4121,296.0346820385295
4133,57.56720996014202
4170,146.49394504991597
4230,0.0
4243,0.0
4354,340991803.56916156
4480,0.0
2,1, 8,21, 0,12, 0.00,60.00,SummerDesignDay
10,844564047.1278504
46,249737579.99999974
70,96701579.99999997
345,153035999.9999997
992,231449399.99999977
1016,231449399.99999977
1496,64098647.46477378
1532,57764642.17263899
1556,57764642.17263899
2227,17736707.72172369
2365,6334005.292134787
4121,296.8029718326014
4133,57.94543650960201
4170,146.49394504991597
4230,0.0
4243,0.0
4354,345640062.6031549
4480,0.0
2,1, 8,21, 0,13, 0.00,60.00,SummerDesignDay
10,849046314.5018875
46,249737579.99999974
70,96701579.99999997
345,153035999.9999997
992,231449399.99999977
1016,231449399.99999977
1496,63839523.224946688
1532,57764642.17263899
1556,57764642.17263899
2227,17902274.611565755
2365,6074881.052307697
4121,298.20211281789747
4133,58.62610302676099
4170,146.49394504991597
4230,0.0
4243,0.0
4354,349956761.6882087
4480,0.0
2,1, 8,21, 0,14, 0.00,60.00,SummerDesignDay
10,860744135.9691051
46,249737579.99999974
70,96701579.99999997
345,153035999.9999997
992,231449399.99999977
1016,231449399.99999977
1496,64150411.64811538
1532,57764642.17263899
1556,57764642.17263899
2227,18648387.571382405
2365,6385769.475476386
4121,303.6040945979408
4133,59.95735302580007
4170,146.49394504991597
4230,0.0
4243,0.0
4354,360908464.79362788
4480,0.0
2,1, 8,21, 0,15, 0.00,60.00,SummerDesignDay
10,870893813.5855546
46,249737579.99999974
70,96701579.99999997
345,153035999.9999997
992,231449399.99999977
1016,231449399.99999977
1496,64085733.00028826
1532,57764642.17263899
1556,57764642.17263899
2227,17736159.25872481
2365,6321090.827649267
4121,309.77984682486916
4133,61.40448833718932
4170,146.49394504991597
4230,0.0
4243,0.0
4354,371970364.54698309
4480,0.0
2,1, 8,21, 0,16, 0.00,60.00,SummerDesignDay
10,871482459.836921
46,249737579.99999974
70,96701579.99999997
345,153035999.9999997
992,231449399.99999977
1016,231449399.99999977
1496,63852391.193563479
1532,57764642.17263899
1556,57764642.17263899
2227,18277663.73072516
2365,6087749.020924481
4121,310.36016689881139
4133,61.30110384386522
4170,146.49394504991597
4230,0.0
4243,0.0
4354,372017505.7460289
4480,0.0
2,1, 8,21, 0,17, 0.00,60.00,SummerDesignDay
10,858246532.0121877
46,249737579.99999974
70,96701579.99999997
345,153035999.9999997
992,231449399.99999977
1016,231449399.99999977
1496,64238061.16884883
1532,57764642.17263899
1556,57764642.17263899
2227,18273109.49160995
2365,6385774.173806934
4121,303.5712085213761
4133,59.666998897144939
4170,146.49394504991597
4230,87644.82240289788
4243,0.0
4354,358786138.94936916
4480,0.0
2,1, 8,21, 0,18, 0.00,60.00,SummerDesignDay
10,834069228.8443705
46,249737579.99999974
70,96701579.99999997
345,153035999.9999997
992,231449399.99999977
1016,231449399.99999977
1496,64292253.06009476
1532,57764642.17263899
1556,57764642.17263899
2227,17735993.27436521
2365,6308180.344400793
4121,291.7833601586991
4133,57.08377806965767
4170,146.49394504991597
4230,219430.54305498169
4243,0.0
4354,335145963.7866451
4480,0.0
2,1, 8,21, 0,19, 0.00,60.00,SummerDesignDay
10,794740180.9421539
46,249737579.99999974
70,96701579.99999997
345,153035999.9999997
992,231449399.99999977
1016,231449399.99999977
1496,64245660.178032618
1532,57764642.17263899
1556,57764642.17263899
2227,18652612.63745421
2365,6100617.339491325
4121,271.94264871234028
4133,53.901125244821539
4170,146.49394504991597
4230,380400.6659022901
4243,0.0
4354,294900316.3620509
4480,0.0
2,1, 8,21, 0,20, 0.00,60.00,SummerDesignDay
10,766470797.98265
46,249737579.99999974
70,96701579.99999997
345,153035999.9999997
992,231449399.99999977
1016,231449399.99999977
1496,64681612.509972278
1532,57764642.17263899
1556,57764642.17263899
2227,17899394.315491529
2365,6385780.274410738
4121,259.1231838521794
4133,51.58259735672523
4170,146.49394504991597
4230,531190.0629225551
4243,0.0
4354,267384164.54397456
4480,0.0
2,1, 8,21, 0,21, 0.00,60.00,SummerDesignDay
10,748964964.556279
46,249737579.99999974
70,96701579.99999997
345,153035999.9999997
992,231449399.99999977
1016,231449399.99999977
1496,64715374.75911729
1532,57764642.17263899
1556,57764642.17263899
2227,17736107.50303354
2365,6295271.212399815
4121,251.5253519696924
4133,50.155232906074619
4170,146.49394504991597
4230,655461.3740784852
4243,0.0
4354,250041625.52789343
4480,0.0
2,1, 8,21, 0,22, 0.00,60.00,SummerDesignDay
10,717897244.0954003
46,249737579.99999974
70,96701579.99999997
345,153035999.9999997
992,231449399.99999977
1016,231449399.99999977
1496,63878547.27127744
1532,57764642.17263899
1556,57764642.17263899
2227,18817358.855539457
2365,6113905.098638453
4121,240.24894677148309
4133,43.044667779543988
4170,146.49394504991597
4230,0.0
4243,0.0
4354,217892664.9909141
4480,0.0
2,1, 8,21, 0,23, 0.00,60.00,SummerDesignDay
10,707896740.5403911
46,249737579.99999974
70,96701579.99999997
345,153035999.9999997
992,231449399.99999977
1016,231449399.99999977
1496,64150425.806194398
1532,57764642.17263899
1556,57764642.17263899
2227,17736455.081488149
2365,6385783.633555401
4121,236.9931429305296
4133,42.80325787534182
4170,146.49394504991597
4230,0.0
4243,0.0
4354,208973068.46575985
4480,0.0
2,1, 8,21, 0,24, 0.00,60.00,SummerDesignDay
10,699340047.8839647
46,249737579.99999974
70,96701579.99999997
345,153035999.9999997
992,231449399.99999977
1016,231449399.99999977
1496,64046921.15628131
1532,57764642.17263899
1556,57764642.17263899
2227,18005900.225138423
2365,6282278.9836423159
4121,234.62014592473998
4133,42.63564684981416
4170,146.49394504991597
4230,0.0
4243,0.0
4354,200146933.03868032
4480,0.0
1,SAN-DIEGO-LINDBERGH-FIEL ANN HTG 99.6% CONDNS DB,  32.73,-117.17,  -8.00,   4.00
2,1, 1,21, 0, 1, 0.00,60.00,WinterDesignDay
10,72193.18482551191
46,0.0
70,0.0
345,0.0
992,0.0
1016,0.0
1496,231430586.46874849
1532,0.0
1556,0.0
2227,72000.0
2365,579679.1997937226
4121,193.18482551183926
4133,40.36544909446113
4170,146.49394504991597
4230,230850907.26895476
4243,0.0
4354,0.0
4480,0.0
2,1, 1,21, 0, 2, 0.00,60.00,WinterDesignDay
10,72200.9820550978
46,0.0
70,0.0
345,0.0
992,0.0
1016,0.0
1496,289868089.8213795
1532,0.0
1556,0.0
2227,72000.0
2365,833483.936473899
4121,200.98205509773437
4133,40.36544909446113
4170,146.49394504991597
4230,289034605.8849056
4243,0.0
4354,0.0
4480,0.0
2,1, 1,21, 0, 3, 0.00,60.00,WinterDesignDay
10,72208.1656982004
46,0.0
70,0.0
345,0.0
992,0.0
1016,0.0
1496,345109058.1459756
1532,0.0
1556,0.0
2227,72000.0
2365,833372.2904352646
4121,208.16569820035356
4133,40.36544909446113
4170,146.49394504991597
4230,344275685.8555404
4243,0.0
4354,0.0
4480,0.0
2,1, 1,21, 0, 4, 0.00,60.00,WinterDesignDay
10,72214.25865379055
46,0.0
70,0.0
345,0.0
992,0.0
1016,0.0
1496,396624684.6679903
1532,0.0
1556,0.0
2227,72000.0
2365,833413.0588825962
4121,214.25865379046986
4133,40.36544909446113
4170,146.49394504991597
4230,395791271.60910776
4243,0.0
4354,0.0
4480,0.0
2,1, 1,21, 0, 5, 0.00,60.00,WinterDesignDay
10,72218.51602302699
46,0.0
70,0.0
345,0.0
992,0.0
1016,0.0
1496,434809669.636517
1532,0.0
1556,0.0
2227,72000.0
2365,833295.4676707607
4121,218.51602302692533
4133,40.36544909446113
4170,146.49394504991597
4230,433976374.1688463
4243,0.0
4354,0.0
4480,0.0
2,1, 1,21, 0, 6, 0.00,60.00,WinterDesignDay
10,13605962.44111961
46,0.0
70,0.0
345,0.0
992,0.0
1016,0.0
1496,670345080.2429882
1532,0.0
1556,0.0
2227,72000.0
2365,670267.1543730949
4121,244.7893997227795
4133,63.74367357113906
4170,146.49394504991597
4230,669674813.0886152
4243,0.0
4354,13533717.651719887
4480,0.0
2,1, 1,21, 0, 7, 0.00,60.00,WinterDesignDay
10,43055081.43558115
46,0.0
70,0.0
345,0.0
992,0.0
1016,0.0
1496,1616109720.4731465
1532,0.0
1556,0.0
2227,72000.0
2365,742907.4627525576
4121,409.17351190546989
4133,127.15178404610896
4170,146.49394504991597
4230,1615366813.0103939
4243,0.0
4354,42982672.26206924
4480,0.0
2,1, 1,21, 0, 8, 0.00,60.00,WinterDesignDay
10,10521421.108231416
46,0.0
70,0.0
345,0.0
992,0.0
1016,0.0
1496,1320198517.312148
1532,0.0
1556,0.0
2227,72000.0
2365,833487.5430560792
4121,316.7816514098976
4133,59.38951489644283
4170,146.49394504991597
4230,1319365029.769092
4243,0.0
4354,10449104.326580005
4480,0.0
2,1, 1,21, 0, 9, 0.00,60.00,WinterDesignDay
10,72281.15076373639
46,0.0
70,0.0
345,0.0
992,0.0
1016,0.0
1496,1100686270.1958309
1532,0.0
1556,0.0
2227,72000.0
2365,833339.9988858856
4121,281.15076373632066
4133,41.13795395644075
4170,146.49394504991597
4230,1099852930.196945
4243,0.0
4354,0.0
4480,0.0
2,1, 1,21, 0,10, 0.00,60.00,WinterDesignDay
10,72271.91004751729
46,0.0
70,0.0
345,0.0
992,0.0
1016,0.0
1496,1017295759.9148783
1532,0.0
1556,0.0
2227,72000.0
2365,833380.9851126943
4121,271.91004751722979
4133,40.61220768242569
4170,146.49394504991597
4230,1016462378.9297655
4243,0.0
4354,0.0
4480,0.0
2,1, 1,21, 0,11, 0.00,60.00,WinterDesignDay
10,72266.34700458202
46,0.0
70,0.0
345,0.0
992,0.0
1016,0.0
1496,967462582.5141114
1532,0.0
1556,0.0
2227,72000.0
2365,833291.8925644276
4121,266.3470045819463
4133,40.463046488015667
4170,146.49394504991597
4230,966629290.6215469
4243,0.0
4354,0.0
4480,0.0
2,1, 1,21, 0,12, 0.00,60.00,WinterDesignDay
10,72262.67474055148
46,0.0
70,0.0
345,0.0
992,0.0
1016,0.0
1496,934328830.5251634
1532,0.0
1556,0.0
2227,72000.0
2365,579602.2012102562
4121,262.6747405514213
4133,40.413904251712249
4170,146.49394504991597
4230,933749228.3239532
4243,0.0
4354,0.0
4480,0.0
2,1, 1,21, 0,13, 0.00,60.00,WinterDesignDay
10,72260.1291829187
46,0.0
70,0.0
345,0.0
992,0.0
1016,0.0
1496,911950303.3628174
1532,0.0
1556,0.0
2227,72000.0
2365,833383.7229116436
4121,260.1291829186468
4133,40.39003157939051
4170,146.49394504991597
4230,911116919.6399058
4243,0.0
4354,0.0
4480,0.0
2,1, 1,21, 0,14, 0.00,60.00,WinterDesignDay
10,72258.3240778218
46,0.0
70,0.0
345,0.0
992,0.0
1016,0.0
1496,895801591.3664651
1532,0.0
1556,0.0
2227,72000.0
2365,833425.1664758938
4121,258.3240778217469
4133,40.37484612310068
4170,146.49394504991597
4230,894968166.1999893
4243,0.0
4354,0.0
4480,0.0
2,1, 1,21, 0,15, 0.00,60.00,WinterDesignDay
10,72257.04831279049
46,0.0
70,0.0
345,0.0
992,0.0
1016,0.0
1496,884457934.536341
1532,0.0
1556,0.0
2227,72000.0
2365,833320.9939294425
4121,257.048312790419
4133,40.366267604749129
4170,146.49394504991597
4230,883624613.5424116
4243,0.0
4354,0.0
4480,0.0
2,1, 1,21, 0,16, 0.00,60.00,WinterDesignDay
10,72256.12902168182
46,0.0
70,0.0
345,0.0
992,0.0
1016,0.0
1496,876118510.4522588
1532,0.0
1556,0.0
2227,72000.0
2365,833348.7057372351
4121,256.12902168175369
4133,40.36544909446113
4170,146.49394504991597
4230,875285161.7465216
4243,0.0
4354,0.0
4480,0.0
2,1, 1,21, 0,17, 0.00,60.00,WinterDesignDay
10,72255.4580116689
46,0.0
70,0.0
345,0.0
992,0.0
1016,0.0
1496,870091020.1645424
1532,0.0
1556,0.0
2227,72000.0
2365,833388.8697944044
4121,255.45801166882453
4133,40.36544909446113
4170,146.49394504991597
4230,869257631.2947481
4243,0.0
4354,0.0
4480,0.0
2,1, 1,21, 0,18, 0.00,60.00,WinterDesignDay
10,72254.96773797753
46,0.0
70,0.0
345,0.0
992,0.0
1016,0.0
1496,865415312.4493635
1532,0.0
1556,0.0
2227,72000.0
2365,579580.7050225264
4121,254.96773797745375
4133,40.36544909446113
4170,146.49394504991597
4230,864835731.7443409
4243,0.0
4354,0.0
4480,0.0
2,1, 1,21, 0,19, 0.00,60.00,WinterDesignDay
10,72254.62038905875
46,0.0
70,0.0
345,0.0
992,0.0
1016,0.0
1496,862466792.720224
1532,0.0
1556,0.0
2227,72000.0
2365,833354.0334217213
4121,254.6203890586817
4133,40.36544909446113
4170,146.49394504991597
4230,861633438.6868024
4243,0.0
4354,0.0
4480,0.0
2,1, 1,21, 0,20, 0.00,60.00,WinterDesignDay
10,72254.36285820542
46,0.0
70,0.0
345,0.0
992,0.0
1016,0.0
1496,860166593.6799951
1532,0.0
1556,0.0
2227,72000.0
2365,833393.0096045493
4121,254.3628582053648
4133,40.36544909446113
4170,146.49394504991597
4230,859333200.6703905
4243,0.0
4354,0.0
4480,0.0
2,1, 1,21, 0,21, 0.00,60.00,WinterDesignDay
10,72254.1689042018
46,0.0
70,0.0
345,0.0
992,0.0
1016,0.0
1496,858400226.9651866
1532,0.0
1556,0.0
2227,72000.0
2365,833433.6386172576
4121,254.16890420175018
4133,40.36544909446113
4170,146.49394504991597
4230,857566793.3265692
4243,0.0
4354,0.0
4480,0.0
2,1, 1,21, 0,22, 0.00,60.00,WinterDesignDay
10,846498.7097548206
46,0.0
70,0.0
345,0.0
992,0.0
1016,0.0
1496,671452233.6221266
1532,0.0
1556,0.0
2227,846244.6906699392
2365,833536.008880584
4121,254.01908488109553
4133,40.36544909446112
4170,146.49394504991597
4230,670618697.613246
4243,0.0
4354,0.0
4480,0.0
2,1, 1,21, 0,23, 0.00,60.00,WinterDesignDay
10,72186.86187900715
46,0.0
70,0.0
345,0.0
992,0.0
1016,0.0
1496,243615723.08466078
1532,0.0
1556,0.0
2227,72000.0
2365,773503.7746836317
4121,186.86187900708956
4133,40.36793395717359
4170,146.49394504991597
4230,242842219.30997715
4243,0.0
4354,0.0
4480,0.0
2,1, 1,21, 0,24, 0.00,60.00,WinterDesignDay
10,72187.90367581506
46,0.0
70,0.0
345,0.0
992,0.0
1016,0.0
1496,283072610.3084673
1532,0.0
1556,0.0
2227,72000.0
2365,639547.522950598
4121,187.90367581500477
4133,40.447715752763738
4170,146.49394504991597
4230,282433062.78551676
4243,0.0
4354,0.0
4480,0.0
1,SAN-DIEGO-LINDBERGH-FIEL AUG CLG 0.4% CONDNS DB=>MCWB,  32.73,-117.17,  -8.00,   4.00
2,1, 8,21, 0, 1, 0.00,60.00,SummerDesignDay
10,721512160.2445145
46,249737579.99999974
70,96701579.99999997
345,153035999.9999997
992,231449399.99999977
1016,231449399.99999977
1496,63803965.6432649
1532,57764642.17263899
1556,57764642.17263899
2227,17736221.840623034
2365,6039323.470625903
4121,242.91910043419143
4133,40.44833764617735
4170,146.49394504991597
4230,0.0
4243,0.0
4354,222588715.48479087
4480,0.0
2,1, 8,21, 0, 2, 0.00,60.00,SummerDesignDay
10,719102875.7491151
46,249737579.99999974
70,96701579.99999997
345,153035999.9999997
992,231449399.99999977
1016,231449399.99999977
1496,64133870.816873397
1532,57764642.17263899
1556,57764642.17263899
2227,17797715.768466239
2365,6369228.644234405
4121,242.45305541941287
4133,40.46200227117426
4170,146.49394504991597
4230,0.0
4243,0.0
4354,220117937.52759359
4480,0.0
2,1, 8,21, 0, 3, 0.00,60.00,SummerDesignDay
10,718677935.0725659
46,249737579.99999974
70,96701579.99999997
345,153035999.9999997
992,231449399.99999977