Program Version,EnergyPlus, Version 9.0.1-bb7ca4f0da, YMD=2019.12.18 15:35
1,5,Environment Title[],Latitude[deg],Longitude[deg],Time Zone[],Elevation[m]
2,8,Day of Simulation[],Month[],Day of Month[],DST Indicator[1=yes 0=no],Hour[],StartMinute[],EndMinute[],DayType
3,5,Cumulative Day of Simulation[],Month[],Day of Month[],DST Indicator[1=yes 0=no],DayType  ! When Daily Report Variables Requested
4,2,Cumulative Days of Simulation[],Month[]  ! When Monthly Report Variables Requested
5,1,Cumulative Days of Simulation[] ! When Run Period Report Variables Requested
6,1,Calendar Year of Simulation[] ! When Annual Report Variables Requested
7,1,Environment,Site Outdoor Air Drybulb Temperature [C] !TimeStep
8,1,Environment,Site Outdoor Air Drybulb Temperature [C] !Hourly
End of Data Dictionary
1,SANTA-ROSA_724957_CZ2010,  38.51,-122.81,  -8.00,  45.00
2,1, 1, 1, 0, 1, 0.00,15.00,Holiday
7,5.55
2,1, 1, 1, 0, 1,15.00,30.00,Holiday
7,6.800000000000001
2,1, 1, 1, 0, 1,30.00,45.00,Holiday
7,8.05
2,1, 1, 1, 0, 1,45.00,60.00,Holiday
7,9.3
2,1, 1, 1, 0, 1, 0.00,60.00,Holiday
8,7.425000000000001
2,1, 1, 1, 0, 2, 0.00,15.00,Holiday
7,9.200000000000001
2,1, 1, 1, 0, 2,15.00,30.00,Holiday
7,9.100000000000002
2,1, 1, 1, 0, 2,30.00,45.00,Holiday
7,9.0
2,1, 1, 1, 0, 2,45.00,60.00,Holiday
7,8.9
2,1, 1, 1, 0, 2, 0.00,60.00,Holiday
8,9.05
2,1, 1, 1, 0, 3, 0.00,15.00,Holiday
7,8.875
2,1, 1, 1, 0, 3,15.00,30.00,Holiday
7,8.850000000000002
2,1, 1, 1, 0, 3,30.00,45.00,Holiday
7,8.825000000000001
2,1, 1, 1, 0, 3,45.00,60.00,Holiday
7,8.8
2,1, 1, 1, 0, 3, 0.00,60.00,Holiday
8,8.837500000000003
2,1, 1, 1, 0, 4, 0.00,15.00,Holiday
7,8.675
2,1, 1, 1, 0, 4,15.00,30.00,Holiday
7,8.55
2,1, 1, 1, 0, 4,30.00,45.00,Holiday
7,8.425
2,1, 1, 1, 0, 4,45.00,60.00,Holiday
7,8.3
2,1, 1, 1, 0, 4, 0.00,60.00,Holiday
8,8.4875
2,1, 1, 1, 0, 5, 0.00,15.00,Holiday
7,8.275
2,1, 1, 1, 0, 5,15.00,30.00,Holiday
7,8.25
2,1, 1, 1, 0, 5,30.00,45.00,Holiday
7,8.225
2,1, 1, 1, 0, 5,45.00,60.00,Holiday
7,8.2
2,1, 1, 1, 0, 5, 0.00,60.00,Holiday
8,8.2375
2,1, 1, 1, 0, 6, 0.00,15.00,Holiday
7,8.5
2,1, 1, 1, 0, 6,15.00,30.00,Holiday
7,8.8
2,1, 1, 1, 0, 6,30.00,45.00,Holiday
7,9.100000000000002
2,1, 1, 1, 0, 6,45.00,60.00,Holiday
7,9.4
2,1, 1, 1, 0, 6, 0.00,60.00,Holiday
8,8.950000000000001
2,1, 1, 1, 0, 7, 0.00,15.00,Holiday
7,9.425
2,1, 1, 1, 0, 7,15.00,30.00,Holiday
7,9.45
2,1, 1, 1, 0, 7,30.00,45.00,Holiday
7,9.475
2,1, 1, 1, 0, 7,45.00,60.00,Holiday
7,9.5
2,1, 1, 1, 0, 7, 0.00,60.00,Holiday
8,9.4625
2,1, 1, 1, 0, 8, 0.00,15.00,Holiday
7,9.8
2,1, 1, 1, 0, 8,15.00,30.00,Holiday
7,10.1
2,1, 1, 1, 0, 8,30.00,45.00,Holiday
7,10.399999999999999
2,1, 1, 1, 0, 8,45.00,60.00,Holiday
7,10.7
2,1, 1, 1, 0, 8, 0.00,60.00,Holiday
8,10.25
2,1, 1, 1, 0, 9, 0.00,15.00,Holiday
7,10.974999999999998
2,1, 1, 1, 0, 9,15.00,30.00,Holiday
7,11.25
2,1, 1, 1, 0, 9,30.00,45.00,Holiday
7,11.525000000000003
2,1, 1, 1, 0, 9,45.00,60.00,Holiday
7,11.8
2,1, 1, 1, 0, 9, 0.00,60.00,Holiday
8,11.3875
2,1, 1, 1, 0,10, 0.00,15.00,Holiday
7,11.875000000000002
2,1, 1, 1, 0,10,15.00,30.00,Holiday
7,11.95
2,1, 1, 1, 0,10,30.00,45.00,Holiday
7,12.024999999999999
2,1, 1, 1, 0,10,45.00,60.00,Holiday
7,12.1
2,1, 1, 1, 0,10, 0.00,60.00,Holiday
8,11.9875
2,1, 1, 1, 0,11, 0.00,15.00,Holiday
7,11.975
2,1, 1, 1, 0,11,15.00,30.00,Holiday
7,11.85
2,1, 1, 1, 0,11,30.00,45.00,Holiday
7,11.725
2,1, 1, 1, 0,11,45.00,60.00,Holiday
7,11.6
2,1, 1, 1, 0,11, 0.00,60.00,Holiday
8,11.7875
2,1, 1, 1, 0,12, 0.00,15.00,Holiday
7,11.475
2,1, 1, 1, 0,12,15.00,30.00,Holiday
7,11.35
2,1, 1, 1, 0,12,30.00,45.00,Holiday
7,11.225
2,1, 1, 1, 0,12,45.00,60.00,Holiday
7,11.1
2,1, 1, 1, 0,12, 0.00,60.00,Holiday
8,11.2875
2,1, 1, 1, 0,13, 0.00,15.00,Holiday
7,11.1
2,1, 1, 1, 0,13,15.00,30.00,Holiday
7,11.1
2,1, 1, 1, 0,13,30.00,45.00,Holiday
7,11.1
2,1, 1, 1, 0,13,45.00,60.00,Holiday
7,11.1
2,1, 1, 1, 0,13, 0.00,60.00,Holiday
8,11.1
2,1, 1, 1, 0,14, 0.00,15.00,Holiday
7,11.075
2,1, 1, 1, 0,14,15.00,30.00,Holiday
7,11.05
2,1, 1, 1, 0,14,30.00,45.00,Holiday
7,11.025
2,1, 1, 1, 0,14,45.00,60.00,Holiday
7,11.0
2,1, 1, 1, 0,14, 0.00,60.00,Holiday
8,11.0375
2,1, 1, 1, 0,15, 0.00,15.00,Holiday
7,10.9
2,1, 1, 1, 0,15,15.00,30.00,Holiday
7,10.8
2,1, 1, 1, 0,15,30.00,45.00,Holiday
7,10.7
2,1, 1, 1, 0,15,45.00,60.00,Holiday
7,10.6
2,1, 1, 1, 0,15, 0.00,60.00,Holiday
8,10.750000000000002
2,1, 1, 1, 0,16, 0.00,15.00,Holiday
7,10.6
2,1, 1, 1, 0,16,15.00,30.00,Holiday
7,10.6
2,1, 1, 1, 0,16,30.00,45.00,Holiday
7,10.6
2,1, 1, 1, 0,16,45.00,60.00,Holiday
7,10.6
2,1, 1, 1, 0,16, 0.00,60.00,Holiday
8,10.6
2,1, 1, 1, 0,17, 0.00,15.00,Holiday
7,10.6
2,1, 1, 1, 0,17,15.00,30.00,Holiday
7,10.6
2,1, 1, 1, 0,17,30.00,45.00,Holiday
7,10.6
2,1, 1, 1, 0,17,45.00,60.00,Holiday
7,10.6
2,1, 1, 1, 0,17, 0.00,60.00,Holiday
8,10.6
2,1, 1, 1, 0,18, 0.00,15.00,Holiday
7,10.45
2,1, 1, 1, 0,18,15.00,30.00,Holiday
7,10.3
2,1, 1, 1, 0,18,30.00,45.00,Holiday
7,10.15
2,1, 1, 1, 0,18,45.00,60.00,Holiday
7,10.0
2,1, 1, 1, 0,18, 0.00,60.00,Holiday
8,10.225
2,1, 1, 1, 0,19, 0.00,15.00,Holiday
7,9.85
2,1, 1, 1, 0,19,15.00,30.00,Holiday
7,9.7
2,1, 1, 1, 0,19,30.00,45.00,Holiday
7,9.55
2,1, 1, 1, 0,19,45.00,60.00,Holiday
7,9.4
2,1, 1, 1, 0,19, 0.00,60.00,Holiday
8,9.625
2,1, 1, 1, 0,20, 0.00,15.00,Holiday
7,9.325000000000001
2,1, 1, 1, 0,20,15.00,30.00,Holiday
7,9.25
2,1, 1, 1, 0,20,30.00,45.00,Holiday
7,9.174999999999999
2,1, 1, 1, 0,20,45.00,60.00,Holiday
7,9.1
2,1, 1, 1, 0,20, 0.00,60.00,Holiday
8,9.2125
2,1, 1, 1, 0,21, 0.00,15.00,Holiday
7,8.6
2,1, 1, 1, 0,21,15.00,30.00,Holiday
7,8.1
2,1, 1, 1, 0,21,30.00,45.00,Holiday
7,7.6
2,1, 1, 1, 0,21,45.00,60.00,Holiday
7,7.1
2,1, 1, 1, 0,21, 0.00,60.00,Holiday
8,7.85
2,1, 1, 1, 0,22, 0.00,15.00,Holiday
7,6.824999999999999
2,1, 1, 1, 0,22,15.00,30.00,Holiday
7,6.55
2,1, 1, 1, 0,22,30.00,45.00,Holiday
7,6.275
2,1, 1, 1, 0,22,45.00,60.00,Holiday
7,6.0
2,1, 1, 1, 0,22, 0.00,60.00,Holiday
8,6.4125
2,1, 1, 1, 0,23, 0.00,15.00,Holiday
7,5.725
2,1, 1, 1, 0,23,15.00,30.00,Holiday
7,5.45
2,1, 1, 1, 0,23,30.00,45.00,Holiday
7,5.175000000000001
2,1, 1, 1, 0,23,45.00,60.00,Holiday
7,4.9
2,1, 1, 1, 0,23, 0.00,60.00,Holiday
8,5.3125
2,1, 1, 1, 0,24, 0.00,15.00,Holiday
7,4.75
2,1, 1, 1, 0,24,15.00,30.00,Holiday
7,4.6
2,1, 1, 1, 0,24,30.00,45.00,Holiday
7,4.449999999999999
2,1, 1, 1, 0,24,45.00,60.00,Holiday
7,4.3
2,1, 1, 1, 0,24, 0.00,60.00,Holiday
8,4.5249999999999999
2,2, 1, 2, 0, 1, 0.00,15.00,Friday
7,4.1499999999999999
2,2, 1, 2, 0, 1,15.00,30.00,Friday
7,4.0
2,2, 1, 2, 0, 1,30.00,45.00,Friday
7,3.8500000000000007
2,2, 1, 2, 0, 1,45.00,60.00,Friday
7,3.7
2,2, 1, 2, 0, 1, 0.00,60.00,Friday
8,3.925
2,2, 1, 2, 0, 2, 0.00,15.00,Friday
7,3.2
2,2, 1, 2, 0, 2,15.00,30.00,Friday
7,2.7
2,2, 1, 2, 0, 2,30.00,45.00,Friday
7,2.2
2,2, 1, 2, 0, 2,45.00,60.00,Friday
7,1.7
2,2, 1, 2, 0, 2, 0.00,60.00,Friday
8,2.45
2,2, 1, 2, 0, 3, 0.00,15.00,Friday
7,1.7
2,2, 1, 2, 0, 3,15.00,30.00,Friday
7,1.7
2,2, 1, 2, 0, 3,30.00,45.00,Friday
7,1.7
2,2, 1, 2, 0, 3,45.00,60.00,Friday
7,1.7
2,2, 1, 2, 0, 3, 0.00,60.00,Friday
8,1.7
2,2, 1, 2, 0, 4, 0.00,15.00,Friday
7,1.7
2,2, 1, 2, 0, 4,15.00,30.00,Friday
7,1.7
2,2, 1, 2, 0, 4,30.00,45.00,Friday
7,1.7
2,2, 1, 2, 0, 4,45.00,60.00,Friday
7,1.7
2,2, 1, 2, 0, 4, 0.00,60.00,Friday
8,1.7
2,2, 1, 2, 0, 5, 0.00,15.00,Friday
7,1.4249999999999999
2,2, 1, 2, 0, 5,15.00,30.00,Friday
7,1.15
2,2, 1, 2, 0, 5,30.00,45.00,Friday
7,0.875
2,2, 1, 2, 0, 5,45.00,60.00,Friday
7,0.6
2,2, 1, 2, 0, 5, 0.00,60.00,Friday
8,1.0125
2,2, 1, 2, 0, 6, 0.00,15.00,Friday
7,0.875
2,2, 1, 2, 0, 6,15.00,30.00,Friday
7,1.15
2,2, 1, 2, 0, 6,30.00,45.00,Friday
7,1.4249999999999999
2,2, 1, 2, 0, 6,45.00,60.00,Friday
7,1.7
2,2, 1, 2, 0, 6, 0.00,60.00,Friday
8,1.2874999999999999
2,2, 1, 2, 0, 7, 0.00,15.00,Friday
7,2.0999999999999998
2,2, 1, 2, 0, 7,15.00,30.00,Friday
7,2.5
2,2, 1, 2, 0, 7,30.00,45.00,Friday
7,2.8999999999999996
2,2, 1, 2, 0, 7,45.00,60.00,Friday
7,3.3
2,2, 1, 2, 0, 7, 0.00,60.00,Friday
8,2.6999999999999999
2,2, 1, 2, 0, 8, 0.00,15.00,Friday
7,3.2749999999999996
2,2, 1, 2, 0, 8,15.00,30.00,Friday
7,3.25
2,2, 1, 2, 0, 8,30.00,45.00,Friday
7,3.2250000000000007
2,2, 1, 2, 0, 8,45.00,60.00,Friday
7,3.2
2,2, 1, 2, 0, 8, 0.00,60.00,Friday
8,3.2375
2,2, 1, 2, 0, 9, 0.00,15.00,Friday
7,3.4000000000000005
2,2, 1, 2, 0, 9,15.00,30.00,Friday
7,3.6
2,2, 1, 2, 0, 9,30.00,45.00,Friday
7,3.8
2,2, 1, 2, 0, 9,45.00,60.00,Friday
7,4.0
2,2, 1, 2, 0, 9, 0.00,60.00,Friday
8,3.7
2,2, 1, 2, 0,10, 0.00,15.00,Friday
7,4.0
2,2, 1, 2, 0,10,15.00,30.00,Friday
7,4.0
2,2, 1, 2, 0,10,30.00,45.00,Friday
7,4.0
2,2, 1, 2, 0,10,45.00,60.00,Friday
7,4.0
2,2, 1, 2, 0,10, 0.00,60.00,Friday
8,4.0
2,2, 1, 2, 0,11, 0.00,15.00,Friday
7,4.25
2,2, 1, 2, 0,11,15.00,30.00,Friday
7,4.5
2,2, 1, 2, 0,11,30.00,45.00,Friday
7,4.75
2,2, 1, 2, 0,11,45.00,60.00,Friday
7,5.0
2,2, 1, 2, 0,11, 0.00,60.00,Friday
8,4.625
2,2, 1, 2, 0,12, 0.00,15.00,Friday
7,5.3
2,2, 1, 2, 0,12,15.00,30.00,Friday
7,5.6
2,2, 1, 2, 0,12,30.00,45.00,Friday
7,5.9
2,2, 1, 2, 0,12,45.00,60.00,Friday
7,6.2
2,2, 1, 2, 0,12, 0.00,60.00,Friday
8,5.749999999999999
2,2, 1, 2, 0,13, 0.00,15.00,Friday
7,6.375
2,2, 1, 2, 0,13,15.00,30.00,Friday
7,6.550000000000001
2,2, 1, 2, 0,13,30.00,45.00,Friday
7,6.7250000000000009
2,2, 1, 2, 0,13,45.00,60.00,Friday
7,6.9
2,2, 1, 2, 0,13, 0.00,60.00,Friday
8,6.637500000000001
2,2, 1, 2, 0,14, 0.00,15.00,Friday
7,7.300000000000001
2,2, 1, 2, 0,14,15.00,30.00,Friday
7,7.7
2,2, 1, 2, 0,14,30.00,45.00,Friday
7,8.1
2,2, 1, 2, 0,14,45.00,60.00,Friday
7,8.5
2,2, 1, 2, 0,14, 0.00,60.00,Friday
8,7.9
2,2, 1, 2, 0,15, 0.00,15.00,Friday
7,8.875
2,2, 1, 2, 0,15,15.00,30.00,Friday
7,9.25
2,2, 1, 2, 0,15,30.00,45.00,Friday
7,9.625
2,2, 1, 2, 0,15,45.00,60.00,Friday
7,10.0
2,2, 1, 2, 0,15, 0.00,60.00,Friday
8,9.4375
2,2, 1, 2, 0,16, 0.00,15.00,Friday
7,9.95
2,2, 1, 2, 0,16,15.00,30.00,Friday
7,9.9
2,2, 1, 2, 0,16,30.00,45.00,Friday
7,9.850000000000002
2,2, 1, 2, 0,16,45.00,60.00,Friday
7,9.8
2,2, 1, 2, 0,16, 0.00,60.00,Friday
8,9.875
2,2, 1, 2, 0,17, 0.00,15.00,Friday
7,9.600000000000002
2,2, 1, 2, 0,17,15.00,30.00,Friday
7,9.4
2,2, 1, 2, 0,17,30.00,45.00,Friday
7,9.2
2,2, 1, 2, 0,17,45.00,60.00,Friday
7,9.0
2,2, 1, 2, 0,17, 0.00,60.00,Friday
8,9.3
2,2, 1, 2, 0,18, 0.00,15.00,Friday
7,8.675
2,2, 1, 2, 0,18,15.00,30.00,Friday
7,8.35
2,2, 1, 2, 0,18,30.00,45.00,Friday
7,8.025
2,2, 1, 2, 0,18,45.00,60.00,Friday
7,7.7
2,2, 1, 2, 0,18, 0.00,60.00,Friday
8,8.1875
2,2, 1, 2, 0,19, 0.00,15.00,Friday
7,7.5
2,2, 1, 2, 0,19,15.00,30.00,Friday
7,7.300000000000001
2,2, 1, 2, 0,19,30.00,45.00,Friday
7,7.1000000000000009
2,2, 1, 2, 0,19,45.00,60.00,Friday
7,6.9
2,2, 1, 2, 0,19, 0.00,60.00,Friday
8,7.200000000000001
2,2, 1, 2, 0,20, 0.00,15.00,Friday
7,6.250000000000001
2,2, 1, 2, 0,20,15.00,30.00,Friday
7,5.6
2,2, 1, 2, 0,20,30.00,45.00,Friday
7,4.949999999999999
2,2, 1, 2, 0,20,45.00,60.00,Friday
7,4.3
2,2, 1, 2, 0,20, 0.00,60.00,Friday
8,5.275
2,2, 1, 2, 0,21, 0.00,15.00,Friday
7,4.175
2,2, 1, 2, 0,21,15.00,30.00,Friday
7,4.05
2,2, 1, 2, 0,21,30.00,45.00,Friday
7,3.925
2,2, 1, 2, 0,21,45.00,60.00,Friday
7,3.8
2,2, 1, 2, 0,21, 0.00,60.00,Friday
8,3.9875
2,2, 1, 2, 0,22, 0.00,15.00,Friday
7,3.6499999999999996
2,2, 1, 2, 0,22,15.00,30.00,Friday
7,3.5
2,2, 1, 2, 0,22,30.00,45.00,Friday
7,3.3500000000000007
2,2, 1, 2, 0,22,45.00,60.00,Friday
7,3.2
2,2, 1, 2, 0,22, 0.00,60.00,Friday
8,3.425
2,2, 1, 2, 0,23, 0.00,15.00,Friday
7,2.9250000000000004
2,2, 1, 2, 0,23,15.00,30.00,Friday
7,2.6500000000000005
2,2, 1, 2, 0,23,30.00,45.00,Friday
7,2.375
2,2, 1, 2, 0,23,45.00,60.00,Friday
7,2.1
2,2, 1, 2, 0,23, 0.00,60.00,Friday
8,2.5125
2,2, 1, 2, 0,24, 0.00,15.00,Friday
7,1.975
2,2, 1, 2, 0,24,15.00,30.00,Friday
7,1.85
2,2, 1, 2, 0,24,30.00,45.00,Friday
7,1.725
2,2, 1, 2, 0,24,45.00,60.00,Friday
7,1.6
2,2, 1, 2, 0,24, 0.00,60.00,Friday
8,1.7875
2,3, 1, 3, 0, 1, 0.00,15.00,Saturday
7,1.4250000000000003
2,3, 1, 3, 0, 1,15.00,30.00,Saturday
7,1.25
2,3, 1, 3, 0, 1,30.00,45.00,Saturday
7,1.0750000000000002
2,3, 1, 3, 0, 1,45.00,60.00,Saturday
7,0.9
2,3, 1, 3, 0, 1, 0.00,60.00,Saturday
8,1.1625
2,3, 1, 3, 0, 2, 0.00,15.00,Saturday
7,0.525
2,3, 1, 3, 0, 2,15.00,30.00,Saturday
7,0.15000000000000003
2,3, 1, 3, 0, 2,30.00,45.00,Saturday
7,-0.22499999999999996
2,3, 1, 3, 0, 2,45.00,60.00,Saturday
7,-0.6
2,3, 1, 3, 0, 2, 0.00,60.00,Saturday
8,-0.03749999999999998
2,3, 1, 3, 0, 3, 0.00,15.00,Saturday
7,-0.6
2,3, 1, 3, 0, 3,15.00,30.00,Saturday
7,-0.6
2,3, 1, 3, 0, 3,30.00,45.00,Saturday
7,-0.6
2,3, 1, 3, 0, 3,45.00,60.00,Saturday
7,-0.6
2,3, 1, 3, 0, 3, 0.00,60.00,Saturday
8,-0.6
2,3, 1, 3, 0, 4, 0.00,15.00,Saturday
7,-0.6
2,3, 1, 3, 0, 4,15.00,30.00,Saturday
7,-0.6
2,3, 1, 3, 0, 4,30.00,45.00,Saturday
7,-0.6
2,3, 1, 3, 0, 4,45.00,60.00,Saturday
7,-0.6
2,3, 1, 3, 0, 4, 0.00,60.00,Saturday
8,-0.6
2,3, 1, 3, 0, 5, 0.00,15.00,Saturday
7,-0.875
2,3, 1, 3, 0, 5,15.00,30.00,Saturday
7,-1.15
2,3, 1, 3, 0, 5,30.00,45.00,Saturday
7,-1.4249999999999999
2,3, 1, 3, 0, 5,45.00,60.00,Saturday
7,-1.7
2,3, 1, 3, 0, 5, 0.00,60.00,Saturday
8,-1.2874999999999999
2,3, 1, 3, 0, 6, 0.00,15.00,Saturday
7,-1.7
2,3, 1, 3, 0, 6,15.00,30.00,Saturday
7,-1.7
2,3, 1, 3, 0, 6,30.00,45.00,Saturday
7,-1.7
2,3, 1, 3, 0, 6,45.00,60.00,Saturday
7,-1.7
2,3, 1, 3, 0, 6, 0.00,60.00,Saturday
8,-1.7
2,3, 1, 3, 0, 7, 0.00,15.00,Saturday
7,-1.7
2,3, 1, 3, 0, 7,15.00,30.00,Saturday
7,-1.7
2,3, 1, 3, 0, 7,30.00,45.00,Saturday
7,-1.7
2,3, 1, 3, 0, 7,45.00,60.00,Saturday
7,-1.7
2,3, 1, 3, 0, 7, 0.00,60.00,Saturday
8,-1.7
2,3, 1, 3, 0, 8, 0.00,15.00,Saturday
7,-1.825
2,3, 1, 3, 0, 8,15.00,30.00,Saturday
7,-1.9500000000000002
2,3, 1, 3, 0, 8,30.00,45.00,Saturday
7,-2.075
2,3, 1, 3, 0, 8,45.00,60.00,Saturday
7,-2.2
2,3, 1, 3, 0, 8, 0.00,60.00,Saturday
8,-2.0125
2,3, 1, 3, 0, 9, 0.00,15.00,Saturday
7,-2.0250000000000005
2,3, 1, 3, 0, 9,15.00,30.00,Saturday
7,-1.85
2,3, 1, 3, 0, 9,30.00,45.00,Saturday
7,-1.675
2,3, 1, 3, 0, 9,45.00,60.00,Saturday
7,-1.5
2,3, 1, 3, 0, 9, 0.00,60.00,Saturday
8,-1.7625000000000002
2,3, 1, 3, 0,10, 0.00,15.00,Saturday
7,-1.075
2,3, 1, 3, 0,10,15.00,30.00,Saturday
7,-0.65
2,3, 1, 3, 0,10,30.00,45.00,Saturday
7,-0.22499999999999999
2,3, 1, 3, 0,10,45.00,60.00,Saturday
7,0.2
2,3, 1, 3, 0,10, 0.00,60.00,Saturday
8,-0.43750000000000008
2,3, 1, 3, 0,11, 0.00,15.00,Saturday
7,0.675
2,3, 1, 3, 0,11,15.00,30.00,Saturday
7,1.1500000000000002
2,3, 1, 3, 0,11,30.00,45.00,Saturday
7,1.6250000000000003
2,3, 1, 3, 0,11,45.00,60.00,Saturday
7,2.1
2,3, 1, 3, 0,11, 0.00,60.00,Saturday
8,1.3875000000000002
2,3, 1, 3, 0,12, 0.00,15.00,Saturday
7,2.9000000000000005
2,3, 1, 3, 0,12,15.00,30.00,Saturday
7,3.7
2,3, 1, 3, 0,12,30.00,45.00,Saturday
7,4.5
2,3, 1, 3, 0,12,45.00,60.00,Saturday
7,5.3
2,3, 1, 3, 0,12, 0.00,60.00,Saturday
8,4.1000000000000009
2,3, 1, 3, 0,13, 0.00,15.00,Saturday
7,6.0
2,3, 1, 3, 0,13,15.00,30.00,Saturday
7,6.699999999999999
2,3, 1, 3, 0,13,30.00,45.00,Saturday
7,7.3999999999999999
2,3, 1, 3, 0,13,45.00,60.00,Saturday
7,8.1
2,3, 1, 3, 0,13, 0.00,60.00,Saturday
8,7.049999999999999
2,3, 1, 3, 0,14, 0.00,15.00,Saturday
7,8.6
2,3, 1, 3, 0,14,15.00,30.00,Saturday
7,9.1
2,3, 1, 3, 0,14,30.00,45.00,Saturday
7,9.6
2,3, 1, 3, 0,14,45.00,60.00,Saturday
7,10.1
2,3, 1, 3, 0,14, 0.00,60.00,Saturday
8,9.35
2,3, 1, 3, 0,15, 0.00,15.00,Saturday
7,10.25
2,3, 1, 3, 0,15,15.00,30.00,Saturday
7,10.399999999999999
2,3, 1, 3, 0,15,30.00,45.00,Saturday
7,10.549999999999999
2,3, 1, 3, 0,15,45.00,60.00,Saturday
7,10.7
2,3, 1, 3, 0,15, 0.00,60.00,Saturday
8,10.474999999999998
2,3, 1, 3, 0,16, 0.00,15.00,Saturday
7,10.924999999999999
2,3, 1, 3, 0,16,15.00,30.00,Saturday
7,11.149999999999999
2,3, 1, 3, 0,16,30.00,45.00,Saturday
7,11.375
2,3, 1, 3, 0,16,45.00,60.00,Saturday
7,11.6
2,3, 1, 3, 0,16, 0.00,60.00,Saturday
8,11.2625
2,3, 1, 3, 0,17, 0.00,15.00,Saturday
7,11.5
2,3, 1, 3, 0,17,15.00,30.00,Saturday
7,11.399999999999999
2,3, 1, 3, 0,17,30.00,45.00,Saturday
7,11.299999999999999
2,3, 1, 3, 0,17,45.00,60.00,Saturday
7,11.2
2,3, 1, 3, 0,17, 0.00,60.00,Saturday
8,11.349999999999998
2,3, 1, 3, 0,18, 0.00,15.00,Saturday
7,10.95
2,3, 1, 3, 0,18,15.00,30.00,Saturday
7,10.7
2,3, 1, 3, 0,18,30.00,45.00,Saturday
7,10.45
2,3, 1, 3, 0,18,45.00,60.00,Saturday
7,10.2
2,3, 1, 3, 0,18, 0.00,60.00,Saturday
8,10.575
2,3, 1, 3, 0,19, 0.00,15.00,Saturday
7,9.924999999999999
2,3, 1, 3, 0,19,15.00,30.00,Saturday
7,9.649999999999999
2,3, 1, 3, 0,19,30.00,45.00,Saturday
7,9.375
2,3, 1, 3, 0,19,45.00,60.00,Saturday
7,9.1
2,3, 1, 3, 0,19, 0.00,60.00,Saturday
8,9.5125
2,3, 1, 3, 0,20, 0.00,15.00,Saturday
7,8.524999999999999
2,3, 1, 3, 0,20,15.00,30.00,Saturday
7,7.949999999999999
2,3, 1, 3, 0,20,30.00,45.00,Saturday
7,7.375
2,3, 1, 3, 0,20,45.00,60.00,Saturday
7,6.8
2,3, 1, 3, 0,20, 0.00,60.00,Saturday
8,7.6625
2,3, 1, 3, 0,21, 0.00,15.00,Saturday
7,6.074999999999999
2,3, 1, 3, 0,21,15.00,30.00,Saturday
7,5.35
2,3, 1, 3, 0,21,30.00,45.00,Saturday
7,4.625
2,3, 1, 3, 0,21,45.00,60.00,Saturday
7,3.9
2,3, 1, 3, 0,21, 0.00,60.00,Saturday
8,4.987499999999999
2,3, 1, 3, 0,22, 0.00,15.00,Saturday
7,3.8249999999999999
2,3, 1, 3, 0,22,15.00,30.00,Saturday
7,3.75
2,3, 1, 3, 0,22,30.00,45.00,Saturday
7,3.6750000000000004
2,3, 1, 3, 0,22,45.00,60.00,Saturday
7,3.6
2,3, 1, 3, 0,22, 0.00,60.00,Saturday
8,3.7125
2,3, 1, 3, 0,23, 0.00,15.00,Saturday
7,3.1500000000000005
2,3, 1, 3, 0,23,15.00,30.00,Saturday
7,2.7
2,3, 1, 3, 0,23,30.00,45.00,Saturday
7,2.25
2,3, 1, 3, 0,23,45.00,60.00,Saturday
7,1.8
2,3, 1, 3, 0,23, 0.00,60.00,Saturday
8,2.4750000000000007
2,3, 1, 3, 0,24, 0.00,15.00,Saturday
7,1.8250000000000002
2,3, 1, 3, 0,24,15.00,30.00,Saturday
7,1.85
2,3, 1, 3, 0,24,30.00,45.00,Saturday
7,1.8749999999999998
2,3, 1, 3, 0,24,45.00,60.00,Saturday
7,1.9
2,3, 1, 3, 0,24, 0.00,60.00,Saturday
8,1.8624999999999999
2,4, 1, 4, 0, 1, 0.00,15.00,Sunday
7,1.4499999999999998
2,4, 1, 4, 0, 1,15.00,30.00,Sunday
7,1.0
2,4, 1, 4, 0, 1,30.00,45.00,Sunday
7,0.55
2,4, 1, 4, 0, 1,45.00,60.00,Sunday
7,0.1
2,4, 1, 4, 0, 1, 0.00,60.00,Sunday
8,0.775
2,4, 1, 4, 0, 2, 0.00,15.00,Sunday
7,0.275
2,4, 1, 4, 0, 2,15.00,30.00,Sunday
7,0.45
2,4, 1, 4, 0, 2,30.00,45.00,Sunday
7,0.6250000000000001
2,4, 1, 4, 0, 2,45.00,60.00,Sunday
7,0.8
2,4, 1, 4, 0, 2, 0.00,60.00,Sunday
8,0.5375000000000001
2,4, 1, 4, 0, 3, 0.00,15.00,Sunday
7,0.2500000000000001
2,4, 1, 4, 0, 3,15.00,30.00,Sunday
7,-0.29999999999999996
2,4, 1, 4, 0, 3,30.00,45.00,Sunday
7,-0.8499999999999999
2,4, 1, 4, 0, 3,45.00,60.00,Sunday
7,-1.4
2,4, 1, 4, 0, 3, 0.00,60.00,Sunday
8,-0.575
2,4, 1, 4, 0, 4, 0.00,15.00,Sunday
7,-1.4749999999999999
2,4, 1, 4, 0, 4,15.00,30.00,Sunday
7,-1.5499999999999999
2,4, 1, 4, 0, 4,30.00,45.00,Sunday
7,-1.625
2,4, 1, 4, 0, 4,45.00,60.00,Sunday
7,-1.7
2,4, 1, 4, 0, 4, 0.00,60.00,Sunday
8,-1.5875
2,4, 1, 4, 0, 5, 0.00,15.00,Sunday
7,-1.7
2,4, 1, 4, 0, 5,15.00,30.00,Sunday
7,-1.7
2,4, 1, 4, 0, 5,30.00,45.00,Sunday
7,-1.7
2,4, 1, 4, 0, 5,45.00,60.00,Sunday
7,-1.7
2,4, 1, 4, 0, 5, 0.00,60.00,Sunday
8,-1.7
2,4, 1, 4, 0, 6, 0.00,15.00,Sunday
7,-1.825
2,4, 1, 4, 0, 6,15.00,30.00,Sunday
7,-1.9500000000000002
2,4, 1, 4, 0, 6,30.00,45.00,Sunday
7,-2.075
2,4, 1, 4, 0, 6,45.00,60.00,Sunday
7,-2.2
2,4, 1, 4, 0, 6, 0.00,60.00,Sunday
8,-2.0125
2,4, 1, 4, 0, 7, 0.00,15.00,Sunday
7,-2.1750000000000004
2,4, 1, 4, 0, 7,15.00,30.00,Sunday
7,-2.1500000000000005
2,4, 1, 4, 0, 7,30.00,45.00,Sunday
7,-2.125
2,4, 1, 4, 0, 7,45.00,60.00,Sunday
7,-2.1
2,4, 1, 4, 0, 7, 0.00,60.00,Sunday
8,-2.1375
2,4, 1, 4, 0, 8, 0.00,15.00,Sunday
7,-2.125
2,4, 1, 4, 0, 8,15.00,30.00,Sunday
7,-2.1500000000000005
2,4, 1, 4, 0, 8,30.00,45.00,Sunday
7,-2.1750000000000004
2,4, 1, 4, 0, 8,45.00,60.00,Sunday
7,-2.2
2,4, 1, 4, 0, 8, 0.00,60.00,Sunday
8,-2.1625000000000007
2,4, 1, 4, 0, 9, 0.00,15.00,Sunday
7,-2.2
2,4, 1, 4, 0, 9,15.00,30.00,Sunday
7,-2.2
2,4, 1, 4, 0, 9,30.00,45.00,Sunday
7,-2.2
2,4, 1, 4, 0, 9,45.00,60.00,Sunday
7,-2.2
2,4, 1, 4, 0, 9, 0.00,60.00,Sunday
8,-2.2
2,4, 1, 4, 0,10, 0.00,15.00,Sunday
7,-1.8
2,4, 1, 4, 0,10,15.00,30.00,Sunday
7,-1.4000000000000002
2,4, 1, 4, 0,10,30.00,45.00,Sunday
7,-1.0
2,4, 1, 4, 0,10,45.00,60.00,Sunday
7,-0.6
2,4, 1, 4, 0,10, 0.00,60.00,Sunday
8,-1.2
2,4, 1, 4, 0,11, 0.00,15.00,Sunday
7,0.17500000000000005
2,4, 1, 4, 0,11,15.00,30.00,Sunday
7,0.95
2,4, 1, 4, 0,11,30.00,45.00,Sunday
7,1.725
2,4, 1, 4, 0,11,45.00,60.00,Sunday
7,2.5
2,4, 1, 4, 0,11, 0.00,60.00,Sunday
8,1.3375
2,4, 1, 4, 0,12, 0.00,15.00,Sunday
7,3.2
2,4, 1, 4, 0,12,15.00,30.00,Sunday
7,3.9
2,4, 1, 4, 0,12,30.00,45.00,Sunday
7,4.6
2,4, 1, 4, 0,12,45.00,60.00,Sunday
7,5.3
2,4, 1, 4, 0,12, 0.00,60.00,Sunday
8,4.25
2,4, 1, 4, 0,13, 0.00,15.00,Sunday
7,5.85
2,4, 1, 4, 0,13,15.00,30.00,Sunday
7,6.4
2,4, 1, 4, 0,13,30.00,45.00,Sunday
7,6.95
2,4, 1, 4, 0,13,45.00,60.00,Sunday
7,7.5
2,4, 1, 4, 0,13, 0.00,60.00,Sunday
8,6.675
2,4, 1, 4, 0,14, 0.00,15.00,Sunday
7,8.0
2,4, 1, 4, 0,14,15.00,30.00,Sunday
7,8.5
2,4, 1, 4, 0,14,30.00,45.00,Sunday
7,9.0
2,4, 1, 4, 0,14,45.00,60.00,Sunday
7,9.5
2,4, 1, 4, 0,14, 0.00,60.00,Sunday
8,8.75
2,4, 1, 4, 0,15, 0.00,15.00,Sunday
7,9.65
2,4, 1, 4, 0,15,15.00,30.00,Sunday
7,9.8
2,4, 1, 4, 0,15,30.00,45.00,Sunday
7,9.95
2,4, 1, 4, 0,15,45.00,60.00,Sunday
7,10.1
2,4, 1, 4, 0,15, 0.00,60.00,Sunday
8,9.875
2,4, 1, 4, 0,16, 0.00,15.00,Sunday
7,10.25
2,4, 1, 4, 0,16,15.00,30.00,Sunday
7,10.399999999999999
2,4, 1, 4, 0,16,30.00,45.00,Sunday
7,10.549999999999999
2,4, 1, 4, 0,16,45.00,60.00,Sunday
7,10.7
2,4, 1, 4, 0,16, 0.00,60.00,Sunday
8,10.474999999999998
2,4, 1, 4, 0,17, 0.00,15.00,Sunday
7,10.7
2,4, 1, 4, 0,17,15.00,30.00,Sunday
7,10.7
2,4, 1, 4, 0,17,30.00,45.00,Sunday
7,10.7
2,4, 1, 4, 0,17,45.00,60.00,Sunday
7,10.7
2,4, 1, 4, 0,17, 0.00,60.00,Sunday
8,10.7
2,4, 1, 4, 0,18, 0.00,15.00,Sunday
7,10.575
2,4, 1, 4, 0,18,15.00,30.00,Sunday
7,10.45
2,4, 1, 4, 0,18,30.00,45.00,Sunday
7,10.325
2,4, 1, 4, 0,18,45.00,60.00,Sunday
7,10.2
2,4, 1, 4, 0,18, 0.00,60.00,Sunday
8,10.3875
2,4, 1, 4, 0,19, 0.00,15.00,Sunday
7,9.95
2,4, 1, 4, 0,19,15.00,30.00,Sunday
7,9.7
2,4, 1, 4, 0,19,30.00,45.00,Sunday
7,9.45
2,4, 1, 4, 0,19,45.00,60.00,Sunday
7,9.2
2,4, 1, 4, 0,19, 0.00,60.00,Sunday
8,9.575
2,4, 1, 4, 0,20, 0.00,15.00,Sunday
7,8.799999999999999
2,4, 1, 4, 0,20,15.00,30.00,Sunday
7,8.399999999999999
2,4, 1, 4, 0,20,30.00,45.00,Sunday
7,7.999999999999999
2,4, 1, 4, 0,20,45.00,60.00,Sunday
7,7.6
2,4, 1, 4, 0,20, 0.00,60.00,Sunday
8,8.2
2,4, 1, 4, 0,21, 0.00,15.00,Sunday
7,7.1499999999999999
2,4, 1, 4, 0,21,15.00,30.00,Sunday
7,6.699999999999999
2,4, 1, 4, 0,21,30.00,45.00,Sunday
7,6.25
2,4, 1, 4, 0,21,45.00,60.00,Sunday
7,5.8
2,4, 1, 4, 0,21, 0.00,60.00,Sunday
8,6.475
2,4, 1, 4, 0,22, 0.00,15.00,Sunday
7,5.3
2,4, 1, 4, 0,22,15.00,30.00,Sunday
7,4.8
2,4, 1, 4, 0,22,30.00,45.00,Sunday
7,4.3
2,4, 1, 4, 0,22,45.00,60.00,Sunday
7,3.8
2,4, 1, 4, 0,22, 0.00,60.00,Sunday
8,4.55
2,4, 1, 4, 0,23, 0.00,15.00,Sunday
7,3.675
2,4, 1, 4, 0,23,15.00,30.00,Sunday
7,3.55
2,4, 1, 4, 0,23,30.00,45.00,Sunday
7,3.425
2,4, 1, 4, 0,23,45.00,60.00,Sunday
7,3.3
2,4, 1, 4, 0,23, 0.00,60.00,Sunday
8,3.4875
2,4, 1, 4, 0,24, 0.00,15.00,Sunday
7,3.3249999999999999
2,4, 1, 4, 0,24,15.00,30.00,Sunday
7,3.3499999999999998
2,4, 1, 4, 0,24,30.00,45.00,Sunday
7,3.375
2,4, 1, 4, 0,24,45.00,60.00,Sunday
7,3.4
2,4, 1, 4, 0,24, 0.00,60.00,Sunday
8,3.3625
2,5, 1, 5, 0, 1, 0.00,15.00,Monday
7,3.5
2,5, 1, 5, 0, 1,15.00,30.00,Monday
7,3.5999999999999998
2,5, 1, 5, 0, 1,30.00,45.00,Monday
7,3.6999999999999999
2,5, 1, 5, 0, 1,45.00,60.00,Monday
7,3.8
2,5, 1, 5, 0, 1, 0.00,60.00,Monday
8,3.6499999999999996
2,5, 1, 5, 0, 2, 0.00,15.00,Monday
7,3.4999999999999997
2,5, 1, 5, 0, 2,15.00,30.00,Monday
7,3.2
2,5, 1, 5, 0, 2,30.00,45.00,Monday
7,2.9000000000000005
2,5, 1, 5, 0, 2,45.00,60.00,Monday
7,2.6
2,5, 1, 5, 0, 2, 0.00,60.00,Monday
8,3.05
2,5, 1, 5, 0, 3, 0.00,15.00,Monday
7,2.2
2,5, 1, 5, 0, 3,15.00,30.00,Monday
7,1.8
2,5, 1, 5, 0, 3,30.00,45.00,Monday
7,1.4
2,5, 1, 5, 0, 3,45.00,60.00,Monday
7,1.0
2,5, 1, 5, 0, 3, 0.00,60.00,Monday
8,1.6
2,5, 1, 5, 0, 4, 0.00,15.00,Monday
7,0.775
2,5, 1, 5, 0, 4,15.00,30.00,Monday
7,0.55
2,5, 1, 5, 0, 4,30.00,45.00,Monday
7,0.325
2,5, 1, 5, 0, 4,45.00,60.00,Monday
7,0.1
2,5, 1, 5, 0, 4, 0.00,60.00,Monday
8,0.43750000000000008
2,5, 1, 5, 0, 5, 0.00,15.00,Monday
7,0.25
2,5, 1, 5, 0, 5,15.00,30.00,Monday
7,0.39999999999999999
2,5, 1, 5, 0, 5,30.00,45.00,Monday
7,0.5499999999999999
2,5, 1, 5, 0, 5,45.00,60.00,Monday
7,0.7
2,5, 1, 5, 0, 5, 0.00,60.00,Monday
8,0.4749999999999999
2,5, 1, 5, 0, 6, 0.00,15.00,Monday
7,0.7999999999999999
2,5, 1, 5, 0, 6,15.00,30.00,Monday
7,0.9
2,5, 1, 5, 0, 6,30.00,45.00,Monday
7,1.0
2,5, 1, 5, 0, 6,45.00,60.00,Monday
7,1.1
2,5, 1, 5, 0, 6, 0.00,60.00,Monday
8,0.9500000000000001
2,5, 1, 5, 0, 7, 0.00,15.00,Monday
7,1.0250000000000002
2,5, 1, 5, 0, 7,15.00,30.00,Monday
7,0.9500000000000001
2,5, 1, 5, 0, 7,30.00,45.00,Monday
7,0.8750000000000001
2,5, 1, 5, 0, 7,45.00,60.00,Monday
7,0.8
2,5, 1, 5, 0, 7, 0.00,60.00,Monday
8,0.9125000000000001
2,5, 1, 5, 0, 8, 0.00,15.00,Monday
7,0.32500000000000009
2,5, 1, 5, 0, 8,15.00,30.00,Monday
7,-0.15000000000000003
2,5, 1, 5, 0, 8,30.00,45.00,Monday
7,-0.625
2,5, 1, 5, 0, 8,45.00,60.00,Monday
7,-1.1
2,5, 1, 5, 0, 8, 0.00,60.00,Monday
8,-0.3875
2,5, 1, 5, 0, 9, 0.00,15.00,Monday
7,-1.0250000000000002
2,5, 1, 5, 0, 9,15.00,30.00,Monday
7,-0.9500000000000001
2,5, 1, 5, 0, 9,30.00,45.00,Monday
7,-0.8750000000000001
2,5, 1, 5, 0, 9,45.00,60.00,Monday
7,-0.8
2,5, 1, 5, 0, 9, 0.00,60.00,Monday
8,-0.9125000000000001
2,5, 1, 5, 0,10, 0.00,15.00,Monday
7,-0.10000000000000009
2,5, 1, 5, 0,10,15.00,30.00,Monday
7,0.6
2,5, 1, 5, 0,10,30.00,45.00,Monday
7,1.3
2,5, 1, 5, 0,10,45.00,60.00,Monday
7,2.0
2,5, 1, 5, 0,10, 0.00,60.00,Monday
8,0.95
2,5, 1, 5, 0,11, 0.00,15.00,Monday
7,2.675
2,5, 1, 5, 0,11,15.00,30.00,Monday
7,3.35
2,5, 1, 5, 0,11,30.00,45.00,Monday
7,4.025
2,5, 1, 5, 0,11,45.00,60.00,Monday
7,4.7
2,5, 1, 5, 0,11, 0.00,60.00,Monday
8,3.6875
2,5, 1, 5, 0,12, 0.00,15.00,Monday
7,5.4
2,5, 1, 5, 0,12,15.00,30.00,Monday
7,6.1
2,5, 1, 5, 0,12,30.00,45.00,Monday
7,6.8
2,5, 1, 5, 0,12,45.00,60.00,Monday
7,7.5
2,5, 1, 5, 0,12, 0.00,60.00,Monday
8,6.45
2,5, 1, 5, 0,13, 0.00,15.00,Monday
7,8.0
2,5, 1, 5, 0,13,15.00,30.00,Monday
7,8.5
2,5, 1, 5, 0,13,30.00,45.00,Monday
7,9.0
2,5, 1, 5, 0,13,45.00,60.00,Monday
7,9.5
2,5, 1, 5, 0,13, 0.00,60.00,Monday
8,8.75
2,5, 1, 5, 0,14, 0.00,15.00,Monday
7,9.825
2,5, 1, 5, 0,14,15.00,30.00,Monday
7,10.15
2,5, 1, 5, 0,14,30.00,45.00,Monday
7,10.475000000000002
2,5, 1, 5, 0,14,45.00,60.00,Monday
7,10.8
2,5, 1, 5, 0,14, 0.00,60.00,Monday
8,10.3125
2,5, 1, 5, 0,15, 0.00,15.00,Monday
7,11.150000000000003
2,5, 1, 5, 0,15,15.00,30.00,Monday
7,11.5
2,5, 1, 5, 0,15,30.00,45.00,Monday
7,11.849999999999998
2,5, 1, 5, 0,15,45.00,60.00,Monday
7,12.2
2,5, 1, 5, 0,15, 0.00,60.00,Monday
8,11.675
2,5, 1, 5, 0,16, 0.00,15.00,Monday
7,12.149999999999999
2,5, 1, 5, 0,16,15.00,30.00,Monday
7,12.1
2,5, 1, 5, 0,16,30.00,45.00,Monday
7,12.05
2,5, 1, 5, 0,16,45.00,60.00,Monday
7,12.0
2,5, 1, 5, 0,16, 0.00,60.00,Monday
8,12.075
2,5, 1, 5, 0,17, 0.00,15.00,Monday
7,11.75
2,5, 1, 5, 0,17,15.00,30.00,Monday
7,11.5
2,5, 1, 5, 0,17,30.00,45.00,Monday
7,11.25
2,5, 1, 5, 0,17,45.00,60.00,Monday
7,11.0
2,5, 1, 5, 0,17, 0.00,60.00,Monday
8,11.375
2,5, 1, 5, 0,18, 0.00,15.00,Monday
7,10.725
2,5, 1, 5, 0,18,15.00,30.00,Monday
7,10.45
2,5, 1, 5, 0,18,30.00,45.00,Monday
7,10.175
2,5, 1, 5, 0,18,45.00,60.00,Monday
7,9.9
2,5, 1, 5, 0,18, 0.00,60.00,Monday
8,10.3125
2,5, 1, 5, 0,19, 0.00,15.00,Monday
7,9.75
2,5, 1, 5, 0,19,15.00,30.00,Monday
7,9.600000000000002
2,5, 1, 5, 0,19,30.00,45.00,Monday
7,9.450000000000001
2,5, 1, 5, 0,19,45.00,60.00,Monday
7,9.3
2,5, 1, 5, 0,19, 0.00,60.00,Monday
8,9.525000000000003
2,5, 1, 5, 0,20, 0.00,15.00,Monday
7,8.975000000000002
2,5, 1, 5, 0,20,15.00,30.00,Monday
7,8.65
2,5, 1, 5, 0,20,30.00,45.00,Monday
7,8.325
2,5, 1, 5, 0,20,45.00,60.00,Monday
7,8.0
2,5, 1, 5, 0,20, 0.00,60.00,Monday
8,8.4875
2,5, 1, 5, 0,21, 0.00,15.00,Monday
7,7.4
2,5, 1, 5, 0,21,15.00,30.00,Monday
7,6.8
2,5, 1, 5, 0,21,30.00,45.00,Monday
7,6.199999999999999
2,5, 1, 5, 0,21,45.00,60.00,Monday
7,5.6
2,5, 1, 5, 0,21, 0.00,60.00,Monday
8,6.5
2,5, 1, 5, 0,22, 0.00,15.00,Monday
7,5.574999999999999
2,5, 1, 5, 0,22,15.00,30.00,Monday
7,5.55
2,5, 1, 5, 0,22,30.00,45.00,Monday
7,5.525
2,5, 1, 5, 0,22,45.00,60.00,Monday
7,5.5
2,5, 1, 5, 0,22, 0.00,60.00,Monday
8,5.5375
2,5, 1, 5, 0,23, 0.00,15.00,Monday
7,5.375
2,5, 1, 5, 0,23,15.00,30.00,Monday
7,5.25
2,5, 1, 5, 0,23,30.00,45.00,Monday
7,5.125
2,5, 1, 5, 0,23,45.00,60.00,Monday
7,5.0
2,5, 1, 5, 0,23, 0.00,60.00,Monday
8,5.1875
2,5, 1, 5, 0,24, 0.00,15.00,Monday
7,5.0
2,5, 1, 5, 0,24,15.00,30.00,Monday
7,5.0
2,5, 1, 5, 0,24,30.00,45.00,Monday
7,5.0
2,5, 1, 5, 0,24,45.00,60.00,Monday
7,5.0
2,5, 1, 5, 0,24, 0.00,60.00,Monday
8,5.0
2,6, 1, 6, 0, 1, 0.00,15.00,Tuesday
7,5.0
2,6, 1, 6, 0, 1,15.00,30.00,Tuesday
7,5.0
2,6, 1, 6, 0, 1,30.00,45.00,Tuesday
7,5.0
2,6, 1, 6, 0, 1,45.00,60.00,Tuesday
7,5.0
2,6, 1, 6, 0, 1, 0.00,60.00,Tuesday
8,5.0
2,6, 1, 6, 0, 2, 0.00,15.00,Tuesday
7,5.0
2,6, 1, 6, 0, 2,15.00,30.00,Tuesday
7,5.0
2,6, 1, 6, 0, 2,30.00,45.00,Tuesday
7,5.0
2,6, 1, 6, 0, 2,45.00,60.00,Tuesday
7,5.0
2,6, 1, 6, 0, 2, 0.00,60.00,Tuesday
8,5.0
2,6, 1, 6, 0, 3, 0.00,15.00,Tuesday
7,5.025
2,6, 1, 6, 0, 3,15.00,30.00,Tuesday
7,5.05
2,6, 1, 6, 0, 3,30.00,45.00,Tuesday
7,5.074999999999999
2,6, 1, 6, 0, 3,45.00,60.00,Tuesday
7,5.1
2,6, 1, 6, 0, 3, 0.00,60.00,Tuesday
8,5.0625
2,6, 1, 6, 0, 4, 0.00,15.00,Tuesday
7,5.199999999999999
2,6, 1, 6, 0, 4,15.00,30.00,Tuesday
7,5.3
2,6, 1, 6, 0, 4,30.00,45.00,Tuesday
7,5.4
2,6, 1, 6, 0, 4,45.00,60.00,Tuesday
7,5.5
2,6, 1, 6, 0, 4, 0.00,60.00,Tuesday
8,5.35
2,6, 1, 6, 0, 5, 0.00,15.00,Tuesday
7,5.375
2,6, 1, 6, 0, 5,15.00,30.00,Tuesday
7,5.25
2,6, 1, 6, 0, 5,30.00,45.00,Tuesday
7,5.125
2,6, 1, 6, 0, 5,45.00,60.00,Tuesday
7,5.0
2,6, 1, 6, 0, 5, 0.00,60.00,Tuesday
8,5.1875
2,6, 1, 6, 0, 6, 0.00,15.00,Tuesday
7,5.0
2,6, 1, 6, 0, 6,15.00,30.00,Tuesday
7,5.0
2,6, 1, 6, 0, 6,30.00,45.00,Tuesday
7,5.0
2,6, 1, 6, 0, 6,45.00,60.00,Tuesday
7,5.0
2,6, 1, 6, 0, 6, 0.00,60.00,Tuesday
8,5.0
2,6, 1, 6, 0, 7, 0.00,15.00,Tuesday
7,5.0
2,6, 1, 6, 0, 7,15.00,30.00,Tuesday
7,5.0
2,6, 1, 6, 0, 7,30.00,45.00,Tuesday
7,5.0
2,6, 1, 6, 0, 7,45.00,60.00,Tuesday
7,5.0