Program Version,EnergyPlus, Version 9.0.1-bb7ca4f0da, YMD=2019.12.18 15:35
1,5,Environment Title[],Latitude[deg],Longitude[deg],Time Zone[],Elevation[m]
2,8,Day of Simulation[],Month[],Day of Month[],DST Indicator[1=yes 0=no],Hour[],StartMinute[],EndMinute[],DayType
3,5,Cumulative Day of Simulation[],Month[],Day of Month[],DST Indicator[1=yes 0=no],DayType  ! When Daily Meters Requested
4,2,Cumulative Days of Simulation[],Month[]  ! When Monthly Meters Requested
5,1,Cumulative Days of Simulation[] ! When Run Period Meters Requested
6,1,Calendar Year of Simulation[] ! When Annual Meters Requested
1497,1,Gas:Facility [J] !Hourly
1533,1,InteriorEquipment:Gas [J] !Hourly
4114,1,Fans:Electricity [J] !Hourly
47,1,InteriorLights:Electricity [J] !Hourly
993,1,InteriorEquipment:Electricity [J] !Hourly
2228,1,WaterSystems:Electricity [J] !Hourly
11,1,Electricity:Facility [J] !Hourly
4471,1,Pumps:Electricity [J] !Hourly
4235,1,Heating:Electricity [J] !Hourly
4350,1,Cooling:Electricity [J] !Hourly
4222,1,Heating:Gas [J] !Hourly
2366,1,WaterSystems:Gas [J] !Hourly
1017,1,Receptacle:InteriorEquipment:Electricity [J] !Hourly
1557,1,Receptacle:InteriorEquipment:Gas [J] !Hourly
71,1,ComplianceLtg:InteriorLights:Electricity [J] !Hourly
346,1,NonComplianceLtg:InteriorLights:Electricity [J] !Hourly
4126,1,General:Fans:Electricity [J] !Hourly
4162,1,ProcessMotors:Fans:Electricity [J] !Hourly
End of Data Dictionary
1,SANTA-ROSA_724957_CZ2010,  38.51,-122.81,  -8.00,  45.00
2,1, 1, 1, 0, 1, 0.00,60.00,Holiday
11,66342619.3445233
47,24156278.99999996
71,4835078.999999999
346,19321199.999999968
993,18722069.99999997
1017,18722069.99999997
1497,1043729.2797914465
1533,0.0
1557,0.0
2228,806563.8991129594
2366,1043729.2797914465
4114,22657706.445410395
4126,8458341.339612136
4162,14199365.105798256
4222,0.0
4235,0.0
4350,0.0
4471,0.0
2,1, 1, 1, 0, 2, 0.00,60.00,Holiday
11,67151315.87664214
47,24156278.99999996
71,4835078.999999999
346,19321199.999999968
993,18722069.99999997
1017,18722069.99999997
1497,1100805.3701935479
1533,0.0
1557,0.0
2228,1612950.049899013
2366,1043628.9957842211
4114,22660016.826743179
4126,8458341.339612136
4162,14199365.105798256
4222,57176.374409326694
4235,0.0
4350,0.0
4471,0.0
2,1, 1, 1, 0, 3, 0.00,60.00,Holiday
11,67197265.79331203
47,24156278.99999996
71,4835078.999999999
346,19321199.999999968
993,18722069.99999997
1017,18722069.99999997
1497,2488201.510725666
1533,0.0
1557,0.0
2228,1612711.5576091177
2366,1304383.668549972
4114,22706205.23570296
4126,8458341.339612136
4162,14199365.105798256
4222,1183817.8421756942
4235,0.0
4350,0.0
4471,0.0
2,1, 1, 1, 0, 4, 0.00,60.00,Holiday
11,67301244.6923531
47,24156278.99999996
71,4835078.999999999
346,19321199.999999968
993,18722069.99999997
1017,18722069.99999997
1497,5373855.152962629
1533,0.0
1557,0.0
2228,1599354.0609265017
2366,1038151.357973672
4114,22823541.631426649
4126,8458341.339612136
4162,14199365.105798256
4222,4335703.794988956
4235,0.0
4350,0.0
4471,0.0
2,1, 1, 1, 0, 5, 0.00,60.00,Holiday
11,66671298.34204039
47,24156278.99999996
71,4835078.999999999
346,19321199.999999968
993,18722069.99999997
1017,18722069.99999997
1497,10058920.92721295
1533,0.0
1557,0.0
2228,799735.4137066667
2366,1038408.3481712393
4114,22993213.928333787
4126,8458341.339612136
4162,14199365.105798256
4222,9020512.57904171
4235,0.0
4350,0.0
4471,0.0
2,1, 1, 1, 0, 6, 0.00,60.00,Holiday
11,126493113.16599426
47,52754678.99999992
71,4835078.999999999
346,47919599.99999992
993,47320469.999999929
1017,47320469.999999929
1497,65507628.519678849
1533,0.0
1557,0.0
2228,1599571.8147808468
2366,1306422.7893589428
4114,24818392.351213457
4126,10490501.918585619
4162,14199365.105798256
4222,64201205.7303199
4235,0.0
4350,0.0
4471,0.0
2,1, 1, 1, 0, 7, 0.00,60.00,Holiday
11,184432570.84910227
47,74203478.99999988
71,4835078.999999999
346,69368399.9999999
993,68769269.9999999
1017,68769269.9999999
1497,486119590.2224841
1533,28597212.921243654
1557,28597212.921243654
2228,1612879.7459371952
2366,1043663.6684035201
4114,39846942.103165227
4126,10490501.918585619
4162,14199365.105798256
4222,456478713.632837
4235,0.0
4350,0.0
4471,0.0
2,1, 1, 1, 0, 8, 0.00,60.00,Holiday
11,176795892.55451925
47,74199523.31555876
71,4831123.315558886
346,69368399.9999999
993,68769269.9999999
1017,68769269.9999999
1497,285116756.28540077
1533,28597212.921243654
1557,28597212.921243654
2228,1654791.5131703665
2366,1324672.4176582022
4114,32172307.72579026
4126,10490501.918585619
4162,14199365.105798256
4222,255194870.94649897
4235,0.0
4350,0.0
4471,0.0
2,1, 1, 1, 0, 9, 0.00,60.00,Holiday
11,195061184.39493204
47,77828627.1320551
71,8460227.132055236
346,69368399.9999999
993,72641339.99999988
1017,72641339.99999988
1497,484946738.67160037
1533,0.0
1557,0.0
2228,2526725.5771409964
2366,1338421.0678614549
4114,41403752.12400557
4126,22402177.203488005
4162,14199365.105798256
4222,483608317.6037389
4235,60075.53623287638
4350,0.0
4471,600664.0254975529
2,1, 1, 1, 0,10, 0.00,60.00,Holiday
11,187434914.61476479
47,77691758.96101932
71,8323358.961019444
346,69368399.9999999
993,72641339.99999988
1017,72641339.99999988
1497,368552067.263697
1533,0.0
1557,0.0
2228,2822693.6240169417
2366,1511856.5020491963
4114,33998683.32251092
4126,16525535.907427313
4162,14199365.105798256
4222,367040210.76164796
4235,40767.88720256556
4350,0.0
4471,239670.82001514839
2,1, 1, 1, 0,11, 0.00,60.00,Holiday
11,192793059.82498337
47,77590729.93352324
71,29671129.93352329
346,47919599.99999992
993,74424959.99999996
1017,74424959.99999996
1497,304685458.87758257
1533,0.0
1557,0.0
2228,6037594.912868373
2366,2176675.185823785
4114,34508637.16254212
4126,16519577.605455207
4162,14199365.105798256
4222,302508783.69175878
4235,25942.081359239
4350,0.0
4471,205195.7346904868
2,1, 1, 1, 0,12, 0.00,60.00,Holiday
11,192965579.9302591
47,77496700.6869377
71,29577100.68693775
346,47919599.99999992
993,74424959.99999996
1017,74424959.99999996
1497,302086354.6670248
1533,11438885.168497468
1557,11438885.168497468
2228,6702674.928854204
2366,2090076.2573871015
4114,34112454.26435305
4126,16519577.605455207
4162,14199365.105798256
4222,288557393.2411402
4235,25260.11146497312
4350,0.0
4471,203529.93864928746
2,1, 1, 1, 0,13, 0.00,60.00,Holiday
11,219551163.8341086
47,88130436.70795048
71,40210836.70795049
346,47919599.99999992
993,89913239.99999997
1017,89913239.99999997
1497,250496483.12756063
1533,11438885.168497468
1557,11438885.168497468
2228,7488171.137148036
2366,2460226.778187414
4114,33802219.06991278
4126,16519577.605455207
4162,14199365.105798256
4222,236597371.18087576
4235,17395.13779564264
4350,0.0
4471,199701.78130174447
2,1, 1, 1, 0,14, 0.00,60.00,Holiday
11,217299847.78011243
47,86996679.51352912
71,39077079.51352916
346,47919599.99999992
993,89913239.99999997
1017,89913239.99999997
1497,205265199.75895385
1533,0.0
1557,0.0
2228,7408827.852708692
2366,2479599.7906753208
4114,32765812.171056685
4126,16519577.605455207
4162,14199365.105798256
4222,202785599.9682785
4235,15989.741158610279
4350,0.0
4471,199298.50165942877
2,1, 1, 1, 0,15, 0.00,60.00,Holiday
11,215825885.8710072
47,87199788.23910466
71,39280188.23910468
346,47919599.99999992
993,89913239.99999997
1017,89913239.99999997
1497,192024229.41846446
1533,0.0
1557,0.0
2228,6354773.954099433
2366,2430957.579441298
4114,32142349.78781482
4126,16519577.605455207
4162,14199365.105798256
4222,189593271.83902318
4235,16271.838934797874
4350,0.0
4471,199462.05105357138
2,1, 1, 1, 0,16, 0.00,60.00,Holiday
11,215112401.0584367
47,86072314.68309263
71,38152714.68309264
346,47919599.99999992
993,89913239.99999997
1017,89913239.99999997
1497,176450578.15229089
1533,0.0
1557,0.0
2228,7404726.652190177
2366,2432159.528151215
4114,31506220.52897618
4126,16524383.564272665
4162,14199365.105798256
4222,174018418.6241397
4235,16341.461943545914
4350,0.0
4471,199557.73223427163
2,1, 1, 1, 0,17, 0.00,60.00,Holiday
11,217780393.47480963
47,88619763.48774845
71,40700163.48774847
346,47919599.99999992
993,89913239.99999997
1017,89913239.99999997
1497,202037521.2681536
1533,28597212.921243654
1557,28597212.921243654
2228,7573044.390394742
2366,2418272.8630842028
4114,31458678.181382814
4126,16543534.124135789
4162,14199365.105798256
4222,171022035.48382575
4235,16167.362054467665
4350,0.0
4471,199500.05322924804
2,1, 1, 1, 0,18, 0.00,60.00,Holiday
11,192611182.1843929
47,78647111.99999994
71,30727511.99999999
346,47919599.99999992
993,74424959.99999996
1017,74424959.99999996
1497,246817693.4408219
1533,28597212.921243654
1557,28597212.921243654
2228,7322974.644869945
2366,2158338.884392187
4114,31993055.308287845
4126,16519577.605455207
4162,14199365.105798256
4222,216062141.63518606
4235,21514.03071313906
4350,0.0
4471,201566.20052210676
2,1, 1, 1, 0,19, 0.00,60.00,Holiday
11,242447039.07775749
47,106749035.99999982
71,15931835.999999995
346,90817199.99999984
993,101834279.99999984
1017,101834279.99999984
1497,210908743.0146354
1533,28597212.921243654
1557,28597212.921243654
2228,4758427.802442215
2366,2009825.9271798318
4114,28864873.173403816
4126,14487417.026481722
4162,14199365.105798256
4222,180301704.16621194
4235,31434.49625154491
4350,0.0
4471,208987.60566016116
2,1, 1, 1, 0,20, 0.00,60.00,Holiday
11,271569867.847035
47,124250678.9999998
71,4835078.999999999
346,119415599.9999998
993,118816469.99999982
1017,118816469.99999982
1497,2437821.096829433
1533,0.0
1557,0.0
2228,5827633.808178049
2366,2032486.1740727726
4114,22675085.038857219
4126,8458341.339612136
4162,14199365.105798256
4222,405334.9227566604
4235,0.0
4350,0.0
4471,0.0
2,1, 1, 1, 0,21, 0.00,60.00,Holiday
11,298946203.2053222
47,138549878.9999998
71,4835078.999999999
346,133714799.99999979
993,133115669.99999979
1017,133115669.99999979
1497,2790188.375225505
1533,0.0
1557,0.0
2228,4575648.685988749
2366,1684912.842034525
4114,22705005.519333718
4126,8458341.339612136
4162,14199365.105798256
4222,1105275.53319098
4235,0.0
4350,0.0
4471,0.0
2,1, 1, 1, 0,22, 0.00,60.00,Holiday
11,268736041.8561739
47,124250678.9999998
71,4835078.999999999
346,119415599.9999998
993,118816469.99999982
1017,118816469.99999982
1497,8753168.168531452
1533,0.0
1557,0.0
2228,2711858.3157227186
2366,1651663.1730175894
4114,22957034.540451394
4126,8458341.339612136
4162,14199365.105798256
4222,7101504.99551386
4235,0.0
4350,0.0
4471,0.0
2,1, 1, 1, 0,23, 0.00,60.00,Holiday
11,210921970.47220464
47,95652278.99999984
71,4835078.999999999
346,90817199.99999984
993,90218069.99999985
1017,90218069.99999985
1497,1324740.214138525
1533,0.0
1557,0.0
2228,2393915.026794512
2366,1324740.214138525
4114,22657706.445410395
4126,8458341.339612136
4162,14199365.105798256
4222,0.0
4235,0.0
4350,0.0
4471,0.0
2,1, 1, 1, 0,24, 0.00,60.00,Holiday
11,124332182.34338799
47,52754678.99999992
71,4835078.999999999
346,47919599.99999992
993,47320469.999999929
1017,47320469.999999929
1497,1038466.1078644341
1533,0.0
1557,0.0
2228,1599326.8979776474
2366,1038466.1078644341
4114,22657706.445410395
4126,8458341.339612136
4162,14199365.105798256
4222,0.0
4235,0.0
4350,0.0
4471,0.0
2,2, 1, 2, 0, 1, 0.00,60.00,Friday
11,66328095.106660518
47,24156278.99999996
71,4835078.999999999
346,19321199.999999968
993,18722069.99999997
1017,18722069.99999997
1497,1164918.127326202
1533,0.0
1557,0.0
2228,786508.1496734612
2366,1030194.3993504898
4114,22663237.956987107
4126,8458341.339612136
4162,14199365.105798256
4222,134723.7279757124
4235,0.0
4350,0.0
4471,0.0
2,2, 1, 2, 0, 2, 0.00,60.00,Friday
11,66674204.99219683
47,24156278.99999996
71,4835078.999999999
346,19321199.999999968
993,18722069.99999997
1017,18722069.99999997
1497,9852939.850719557
1533,0.0
1557,0.0
2228,792923.786822045
2366,1035471.6963761796
4114,23002932.205374838
4126,8458341.339612136
4162,14199365.105798256
4222,8817468.154343378
4235,0.0
4350,0.0
4471,0.0
2,2, 1, 2, 0, 3, 0.00,60.00,Friday
11,67977932.52163625
47,24156278.99999996
71,4835078.999999999
346,19321199.999999968
993,18722069.99999997
1017,18722069.99999997
1497,43933769.460121069
1533,0.0
1557,0.0
2228,793046.063508824
2366,1123037.9929327223
4114,24306537.458127455
4126,8458341.339612136
4162,14199365.105798256
4222,42810731.46718834
4235,0.0
4350,0.0
4471,0.0
2,2, 1, 2, 0, 4, 0.00,60.00,Friday
11,69116715.50650636
47,24156278.99999996
71,4835078.999999999
346,19321199.999999968
993,18722069.99999997
1017,18722069.99999997
1497,74345849.23514498
1533,0.0
1557,0.0
2228,786484.8883214032
2366,1126846.887312896
4114,25451881.618185015
4126,8458341.339612136
4162,14199365.105798256
4222,73219002.34783209
4235,0.0
4350,0.0
4471,0.0
2,2, 1, 2, 0, 5, 0.00,60.00,Friday
11,71572197.7922756
47,24156278.99999996
71,4835078.999999999
346,19321199.999999968
993,18722069.99999997
1017,18722069.99999997
1497,117237703.56161233
1533,0.0
1557,0.0
2228,1572974.6981941839
2366,1103675.2651487385
4114,27120874.09408147
4126,8458341.339612136
4162,14199365.105798256
4222,116134028.29646358
4235,0.0
4350,0.0
4471,0.0
2,2, 1, 2, 0, 6, 0.00,60.00,Friday
11,130686397.38650009
47,53890838.99999992
71,5971238.999999999
346,47919599.99999992
993,47871269.999999929
1017,47871269.999999929
1497,152354666.3475573
1533,0.0
1557,0.0
2228,786547.8369966481
2366,1036580.3901555364
4114,28137740.549503484
4126,10490501.918585619
4162,14199365.105798256
4222,151318085.95740179
4235,0.0
4350,0.0
4471,0.0
2,2, 1, 2, 0, 7, 0.00,60.00,Friday
11,216430722.27608348
47,80361638.99999988
71,5971238.999999999
346,74390399.99999988
993,69320069.9999999
1017,69320069.9999999
1497,1267225527.055755
1533,28597212.921243654
1557,28597212.921243654
2228,786591.1862198389
2366,1034700.1622224052
4114,64996031.02430511
4126,22381861.96744206
4162,14199365.105798256
4222,1237593613.9722889
4235,92331.11954329587
4350,0.0
4471,874059.9460153758
2,2, 1, 2, 0, 8, 0.00,60.00,Friday
11,229218483.5976297
47,95898655.66385643
71,21508255.663856564
346,74390399.99999988
993,83139479.99999988
1017,83139479.99999988
1497,860446554.6222643
1533,28882321.086319496
1557,28882321.086319496
2228,2595750.940522025
2366,1689905.6440665993
4114,47156938.608923587
4126,16521918.617968435
4162,14199365.105798256
4222,829874327.891878
4235,67795.38321608794
4350,0.0
4471,359863.0011116818
2,2, 1, 2, 0, 9, 0.00,60.00,Friday
11,284442952.0369617
47,123401846.7293411
71,49011446.72934124
346,74390399.99999988
993,112981499.99999987
1017,112981499.99999987
1497,653468531.089874
1533,285108.16507584266
1557,285108.16507584266
2228,4791063.033288518
2366,2455406.529762416
4114,42945953.52718975
4126,16519577.605455207
4162,14199365.105798256
4222,650728016.3950358
4235,51285.18609584466
4350,0.0
4471,271303.5610465006
2,2, 1, 2, 0,10, 0.00,60.00,Friday
11,341019370.7452747
47,148748854.84492696
71,74358454.84492702
346,74390399.99999988
993,143958059.99999995
1017,143958059.99999995
1497,550266331.6772329
1533,285108.16507584266
1557,285108.16507584266
2228,7040280.7912621549
2366,2942708.195173096
4114,40988235.86964914
4126,16572320.34148382
4162,14199365.105798256
4222,547038515.3169839
4235,39840.965607055026
4350,0.0
4471,244098.2738294983
2,2, 1, 2, 0,11, 0.00,60.00,Friday
11,300257534.4224681
47,128092986.06360674
71,75151386.06360677
346,52941599.9999999
993,122509259.99999996
1017,122509259.99999996
1497,545180067.8112885
1533,513194.69713651677
1557,513194.69713651677
2228,7942939.785937615
2366,3168181.427790542
4114,41442929.15749951
4126,16642962.953846472
4162,14199365.105798256
4222,541498691.6863614
4235,36481.333341508645
4350,0.0
4471,232938.08208288105
2,2, 1, 2, 0,12, 0.00,60.00,Friday
11,298180217.2535092
47,124809625.63975886
71,71868025.63975889
346,52941599.9999999
993,122509259.99999996
1017,122509259.99999996
1497,450324655.48154547
1533,11952079.865633984
1557,11952079.865633984
2228,12221763.006968465
2366,4270802.957305106
4114,38386642.24831499
4126,16882516.261728169
4162,14199365.105798256
4222,434101772.65860638
4235,32397.080069795342
4350,0.0
4471,220529.27839724115
2,2, 1, 2, 0,13, 0.00,60.00,Friday
11,299507115.03316679
47,127011880.10031188
71,74070280.10031189
346,52941599.9999999
993,122509259.99999996
1017,122509259.99999996
1497,396218372.83925738
1533,11952079.865633984
1557,11952079.865633984
2228,12578067.831813844
2366,4425027.294833833
4114,37166451.03255612
4126,16950169.832330459
4162,14199365.105798256
4222,379841265.6787896
4235,28865.518502667077
4350,0.0
4471,212590.54998238194
2,2, 1, 2, 0,14, 0.00,60.00,Friday
11,300328024.9011873
47,128664199.68718861
71,75722599.68718863
346,52941599.9999999
993,122509259.99999996
1017,122509259.99999996
1497,328239406.7098277
1533,513194.69713651677
1557,513194.69713651677
2228,12421002.266861815
2366,4475688.804572465
4114,36505898.56157479
4126,17152507.414252365
4162,14199365.105798256
4222,323250523.20811876
4235,22960.290534864755
4350,0.0
4471,204704.09502738156
2,2, 1, 2, 0,15, 0.00,60.00,Friday
11,296965555.6588627
47,128387906.85012776
71,75446306.85012779
346,52941599.9999999
993,122509259.99999996
1017,122509259.99999996
1497,255531536.0339891
1533,427662.2476137639
1557,427662.2476137639
2228,10442019.85547298
2366,3446414.579495972
4114,35410116.63622789
4126,17375797.37446896
4162,14199365.105798256
4222,251657459.2068794
4235,16362.961915821284
4350,0.0
4471,199889.35511838078
2,2, 1, 2, 0,16, 0.00,60.00,Friday
11,290542055.77235
47,125037774.7531352
71,72096174.75313522
346,52941599.9999999
993,122509259.99999996
1017,122509259.99999996
1497,184653762.00268338
1533,427662.2476137639
1557,427662.2476137639
2228,8896300.052460278
2366,3509438.469414641
4114,33886773.51423427
4126,18030783.737726865
4162,14199365.105798256
4222,180716661.285655
4235,13242.851651118881
4350,0.0
4471,198704.6008692452
2,2, 1, 2, 0,17, 0.00,60.00,Friday
11,296927364.2540852
47,130090961.73761778
71,77149361.7376178
346,52941599.9999999
993,122509259.99999996
1017,122509259.99999996
1497,239532693.2423874
1533,29024875.168857416
1557,29024875.168857416
2228,9660220.056392784
2366,3626519.75530528
4114,34452572.97969919
4126,17963057.639302218
4162,14199365.105798256
4222,206881298.31822474
4235,15151.182012438981
4350,0.0
4471,199198.29836308116
2,2, 1, 2, 0,18, 0.00,60.00,Friday
11,287279797.6735285
47,123776342.99999996
71,70834742.99999997
346,52941599.9999999
993,118102859.99999997
1017,118102859.99999997
1497,304398679.09196677
1533,29024875.168857416
1557,29024875.168857416
2228,9776594.492809426
2366,3166138.4347043305
4114,35402294.26116956
4126,17425253.244901107
4162,14199365.105798256
4222,272207665.48840507
4235,20086.561859826044
4350,0.0
4471,201619.35768979795
2,2, 1, 2, 0,19, 0.00,60.00,Friday
11,320727474.5579107
47,143344268.99999986
71,47505068.99999999
346,95839199.99999984
993,135564839.99999989
1017,135564839.99999989
1497,290523054.2801198
1533,28597212.921243654
1557,28597212.921243654
2228,8782694.499413394
2366,2992018.736663754
4114,32800290.893831195
4126,16739984.535925549
4162,14199365.105798256
4222,258933822.62221236
4235,26816.17282300516
4350,0.0
4471,208563.99184333476
2,2, 1, 2, 0,20, 0.00,60.00,Friday
11,374944644.5496056
47,171942668.99999974
71,47505068.99999999
346,124437599.9999998
993,164163239.99999974
1017,164163239.99999974
1497,277728805.0813999
1533,0.0
1557,0.0
2228,6641651.841564785
2366,2488936.4272944538
4114,31942021.408139267
4126,16591076.728867853
4162,14199365.105798256
4222,275239868.6541054
4235,33190.12524684467
4350,0.0
4471,221872.1746550223
2,2, 1, 2, 0,21, 0.00,60.00,Friday
11,389417151.44909247
47,180270629.9999997
71,41533829.999999988
346,138736799.9999998
993,169616699.99999974
1017,169616699.99999974
1497,305117144.7665124
1533,0.0
1557,0.0
2228,7246270.084008552
2366,2487286.3210333927
4114,32007898.787913026
4126,16529793.978702639
4162,14199365.105798256
4222,302629858.44547906
4235,37793.80625003523
4350,0.0
4471,237858.77092116717
2,2, 1, 2, 0,22, 0.00,60.00,Friday
11,307754424.7655046
47,143777915.9999998
71,19340315.999999998
346,124437599.9999998
993,132085079.9999998
1017,132085079.9999998
1497,126966704.252315
1533,0.0
1557,0.0
2228,4665999.814180645
2366,2007065.988535284
4114,27225428.9513243
4126,10490501.918585619
4162,14199365.105798256
4222,124959638.26377972
4235,0.0
4350,0.0
4471,0.0
2,2, 1, 2, 0,23, 0.00,60.00,Friday
11,214796643.5965166
47,96788438.99999984
71,5971238.999999999
346,90817199.99999984
993,90768869.99999985
1017,90768869.99999985
1497,62514156.468129049
1533,0.0
1557,0.0
2228,2549467.572133023
2366,1348686.7149342527
4114,24689867.024383874
4126,10490501.918585619
4162,14199365.105798256
4222,61165469.753194797
4235,0.0
4350,0.0
4471,0.0
2,2, 1, 2, 0,24, 0.00,60.00,Friday
11,126391863.9271916
47,52754678.99999992
71,4835078.999999999
346,47919599.99999992
993,47320469.999999929
1017,47320469.999999929
1497,62479770.289845857
1533,0.0
1557,0.0
2228,1626847.9028077578
2366,1314300.536651065
4114,24689867.024383874
4126,10490501.918585619
4162,14199365.105798256
4222,61165469.753194797
4235,0.0
4350,0.0
4471,0.0
2,3, 1, 3, 0, 1, 0.00,60.00,Saturday
11,68422700.24028516
47,24156278.99999996
71,4835078.999999999
346,19321199.999999968
993,18722069.99999997
1017,18722069.99999997
1497,10723361.452936352
1533,0.0
1557,0.0
2228,2504590.310428529
2366,1334494.6332421222
4114,23039760.929856697
4126,8458341.339612136
4162,14199365.105798256
4222,9388866.819694229
4235,0.0
4350,0.0
4471,0.0
2,3, 1, 3, 0, 2, 0.00,60.00,Saturday
11,69497196.75895915
47,24156278.99999996
71,4835078.999999999
346,19321199.999999968
993,18722069.99999997
1017,18722069.99999997
1497,60587607.34036567
1533,0.0
1557,0.0
2228,1655084.4745639815
2366,1327672.474569928
4114,24963763.28439523
4126,8458341.339612136
4162,14199365.105798256
4222,59259934.86579574
4235,0.0
4350,0.0
4471,0.0
2,3, 1, 3, 0, 3, 0.00,60.00,Saturday
11,72201920.95923792
47,24156278.99999996
71,4835078.999999999
346,19321199.999999968
993,18722069.99999997
1017,18722069.99999997
1497,130256784.33342251
1533,0.0
1557,0.0
2228,1626890.7383523328
2366,1088296.1496403756
4114,27696681.22088563
4126,8458341.339612136
4162,14199365.105798256
4222,129168488.18378213
4235,0.0
4350,0.0
4471,0.0
2,3, 1, 3, 0, 4, 0.00,60.00,Saturday
11,73901808.91782698
47,24156278.99999996
71,4835078.999999999
346,19321199.999999968
993,18722069.99999997
1017,18722069.99999997
1497,175542693.43409974
1533,0.0
1557,0.0
2228,1599423.6775871916
2366,1263882.2123684902
4114,29424036.240239826
4126,8458341.339612136
4162,14199365.105798256
4222,174278811.22173129
4235,0.0
4350,0.0
4471,0.0
2,3, 1, 3, 0, 5, 0.00,60.00,Saturday
11,75478409.3851372
47,24156278.99999996
71,4835078.999999999
346,19321199.999999968
993,18722069.99999997
1017,18722069.99999997
1497,217663940.0712377
1533,0.0
1557,0.0
2228,1599401.7646635969
2366,1040459.2081298049
4114,31000658.62047367
4126,8458341.339612136
4162,14199365.105798256
4222,216623480.8631079
4235,0.0
4350,0.0
4471,0.0
2,3, 1, 3, 0, 6, 0.00,60.00,Saturday
11,132850863.44144808
47,52754678.99999992
71,4835078.999999999
346,47919599.99999992
993,47320469.999999929
1017,47320469.999999929
1497,251709271.15844736
1533,0.0
1557,0.0
2228,799818.9400414549
2366,1309553.578526132
4114,31975895.501406656
4126,10490501.918585619
4162,14199365.105798256
4222,250399717.5799212
4235,0.0
4350,0.0
4471,0.0
2,3, 1, 3, 0, 7, 0.00,60.00,Saturday
11,219895711.50865508
47,80361638.99999988
71,5971238.999999999
346,74390399.99999988
993,69320069.9999999
1017,69320069.9999999
1497,1422761835.5561872
1533,28597212.921243654
1557,28597212.921243654
2228,1612886.045564233
2366,1050596.648032121
4114,67508277.05372417
4126,19923123.4525926
4162,14199365.105798256
4222,1393114025.9869114
4235,97961.60898265947
4350,0.0
4471,994877.8003842512
2,3, 1, 3, 0, 8, 0.00,60.00,Saturday
11,215214463.57267667
47,83917034.58396411
71,9526634.583964235
346,74390399.99999988
993,73192139.99999988
1017,73192139.99999988
1497,1078171788.7734879
1533,28597212.921243654
1557,28597212.921243654
2228,4504931.289750027
2366,1988302.3628595095
4114,52811955.28301406
4126,16519577.605455207
4162,14199365.105798256
4222,1047586273.4893847
4235,85310.79636420265
4350,0.0
4471,703091.619584353
2,3, 1, 3, 0, 9, 0.00,60.00,Saturday
11,243972054.1017709
47,100737191.11657374
71,26346791.116573857
346,74390399.99999988
993,90883619.99999987
1017,90883619.99999987
1497,852525489.9649129
1533,285108.16507584266
1557,285108.16507584266
2228,4742072.7499162959
2366,2053374.1720880934
4114,46974777.58071725
4126,16519577.605455207
4162,14199365.105798256
4222,850187007.627749
4235,73791.23823268693
4350,0.0
4471,560601.4163310181
2,3, 1, 3, 0,10, 0.00,60.00,Saturday
11,280816936.3819937
47,118058535.94033508
71,43668135.9403352
346,74390399.99999988
993,114116039.99999988
1017,114116039.99999988
1497,665586296.4855291
1533,285108.16507584266
1557,285108.16507584266
2228,5725826.941867522
2366,2358824.177255702
4114,42448461.67656657
4126,16563857.994062644
4162,14199365.105798256
4222,662942364.1431975
4235,56756.247654085724
4350,0.0
4471,411315.5755705416
2,3, 1, 3, 0,11, 0.00,60.00,Saturday
11,281570610.86929228
47,116767751.04267642
71,63826151.042676437
346,52941599.9999999
993,115899659.99999997
1017,115899659.99999997
1497,571275293.395092
1533,513194.69713651677
1557,513194.69713651677
2228,8160301.899736591
2366,2874707.7305434534
4114,40385928.62445162
4126,16691128.697322015
4162,14199365.105798256
4222,567887390.967412
4235,47649.86492852102
4350,0.0
4471,309319.43749912737
2,3, 1, 3, 0,12, 0.00,60.00,Saturday
11,281716459.41513547
47,116713736.47298664
71,63772136.47298667
346,52941599.9999999
993,115899659.99999997
1017,115899659.99999997
1497,460140037.32959726
1533,11952079.865633984
1557,11952079.865633984
2228,11078857.087776572
2366,3452304.588241846
4114,37744272.30573639
4126,16955343.972292574
4162,14199365.105798256
4222,444735652.87572148
4235,37775.5313979747
4350,0.0
4471,242158.01723796037
2,3, 1, 3, 0,13, 0.00,60.00,Saturday
11,275665503.1942268
47,113321808.11711709
71,60380208.11711711
346,52941599.9999999
993,114247259.99999997
1017,114247259.99999997
1497,330748448.2960541
1533,11952079.865633984
1557,11952079.865633984
2228,12644101.641360674
2366,3723353.038295665
4114,35190088.55950348
4126,17047414.479552159
4162,14199365.105798256
4222,315073015.3921245
4235,26727.216868282554
4350,24933.13527602399
4471,210584.5241014125
2,3, 1, 3, 0,14, 0.00,60.00,Saturday
11,273985810.3729838
47,113261004.66119606
71,60319404.66119607
346,52941599.9999999
993,114247259.99999997
1017,114247259.99999997
1497,213424219.19218845
1533,513194.69713651677
1557,513194.69713651677
2228,11735751.217130099
2366,3738633.6741121986
4114,33911621.48428784
4126,17563710.903989816
4162,14199365.105798256
4222,209172390.8209397
4235,16582.08832765099
4350,613349.4226168216
4471,200241.49942537564
2,3, 1, 3, 0,15, 0.00,60.00,Saturday
11,273183075.2275833
47,113156100.2867718
71,60214500.28677181
346,52941599.9999999
993,114247259.99999997
1017,114247259.99999997
1497,152578763.7362727
1533,427662.2476137639
1557,427662.2476137639
2228,10032111.493054402
2366,3157797.460117767
4114,33639188.83193573
4126,18077260.399631859
4162,14199365.105798256
4222,148993304.02854119
4235,10682.659341653638
4350,1899403.240289283
4471,198328.71619048087
2,3, 1, 3, 0,16, 0.00,60.00,Saturday
11,272933633.09431949
47,113473362.42421754
71,60531762.42421755
346,52941599.9999999
993,114247259.99999997
1017,114247259.99999997
1497,119011361.70511265
1533,427662.2476137639
1557,427662.2476137639
2228,9900257.805634052
2366,3156250.181495612
4114,33601666.915029298
4126,18471374.745976017
4162,14199365.105798256
4222,115427449.27600327
4235,6555.398526737022
4350,1506330.185706217
4471,198200.36520568649
2,3, 1, 3, 0,17, 0.00,60.00,Saturday
11,276344619.7322799
47,118515482.54716203
71,65573882.547162059
346,52941599.9999999
993,114247259.99999997
1017,114247259.99999997
1497,142100350.95290525
1533,29024875.168857416
1557,29024875.168857416
2228,9772966.932506
2366,3144312.1565195836
4114,33473552.55642003
4126,18646065.36673055
4162,14199365.105798256
4222,109931163.62752827
4235,5772.773983230823
4350,131345.60266911143
4471,198239.31953956595
2,3, 1, 3, 0,18, 0.00,60.00,Saturday
11,268135229.41306014
47,111937382.99999996
71,64017782.99999998
346,47919599.99999992
993,113145659.99999997
1017,113145659.99999997
1497,175835104.39813758
1533,28597212.921243654
1557,28597212.921243654
2228,9644965.273623867
2366,2750318.711452326
4114,33199077.725064435
4126,17999980.246166454
4162,14199365.105798256
4222,144487572.7654416
4235,9934.59578804491
4350,0.0
4471,198208.81858393074
2,3, 1, 3, 0,19, 0.00,60.00,Saturday
11,294386021.51839926
47,128942549.99999987
71,38125349.999999988
346,90817199.99999984
993,125066699.99999988
1017,125066699.99999988
1497,204110044.23344449
1533,28597212.921243654
1557,28597212.921243654
2228,9209907.767820027
2366,2810444.294044125
4114,30947090.807866783
4126,16532985.278844096
4162,14199365.105798256
4222,172702387.0181567
4235,19024.130530422037
4350,0.0
4471,200748.8121822324
2,3, 1, 3, 0,20, 0.00,60.00,Saturday
11,317075599.0133496
47,142745273.9999998
71,23329673.999999994
346,119415599.9999998
993,138176819.9999998
1017,138176819.9999998
1497,148888336.68059225
1533,0.0
1557,0.0
2228,7193650.8889152
2366,2466681.02540619
4114,28726485.2385014
4126,14487417.026481722
4162,14199365.105798256
4222,146421655.65518607
4235,26015.028420291183
4350,0.0
4471,207353.85751307963
2,3, 1, 3, 0,21, 0.00,60.00,Saturday
11,344674540.1883373
47,157044473.99999977
71,23329673.999999994
346,133714799.99999979
993,152476019.99999977
1017,152476019.99999977
1497,220554182.8877706
1533,0.0
1557,0.0
2228,6044910.352112287
2366,2073867.5978067667
4114,28837735.953240687
4126,14487417.026481722
4162,14199365.105798256
4222,218480315.2899638
4235,38995.67209002118
4350,0.0
4471,232404.21089468734
2,3, 1, 3, 0,22, 0.00,60.00,Saturday
11,284372864.5947241
47,127949597.9999998
71,8533997.999999999
346,119415599.9999998
993,122688539.9999998
1017,122688539.9999998
1497,290084171.565753
1533,0.0
1557,0.0
2228,4177368.315522954
2366,1998022.345467023
4114,29234281.14751398
4126,14487417.026481722