Program Version,EnergyPlus, Version 9.0.1-bb7ca4f0da, YMD=2019.12.13 13:06
1,5,Environment Title[],Latitude[deg],Longitude[deg],Time Zone[],Elevation[m]
2,8,Day of Simulation[],Month[],Day of Month[],DST Indicator[1=yes 0=no],Hour[],StartMinute[],EndMinute[],DayType
3,5,Cumulative Day of Simulation[],Month[],Day of Month[],DST Indicator[1=yes 0=no],DayType  ! When Daily Meters Requested
4,2,Cumulative Days of Simulation[],Month[]  ! When Monthly Meters Requested
5,1,Cumulative Days of Simulation[] ! When Run Period Meters Requested
6,1,Calendar Year of Simulation[] ! When Annual Meters Requested
4473,1,Pumps:Electricity [J] !Hourly
2366,1,WaterSystems:Gas [J] !Hourly
1557,1,Receptacle:InteriorEquipment:Gas [J] !Hourly
2228,1,WaterSystems:Electricity [J] !Hourly
1497,1,Gas:Facility [J] !Hourly
11,1,Electricity:Facility [J] !Hourly
47,1,InteriorLights:Electricity [J] !Hourly
993,1,InteriorEquipment:Electricity [J] !Hourly
4114,1,Fans:Electricity [J] !Hourly
4210,1,Heating:Electricity [J] !Hourly
4348,1,Cooling:Electricity [J] !Hourly
1533,1,InteriorEquipment:Gas [J] !Hourly
4236,1,Heating:Gas [J] !Hourly
1017,1,Receptacle:InteriorEquipment:Electricity [J] !Hourly
71,1,ComplianceLtg:InteriorLights:Electricity [J] !Hourly
346,1,NonComplianceLtg:InteriorLights:Electricity [J] !Hourly
4126,1,General:Fans:Electricity [J] !Hourly
4162,1,ProcessMotors:Fans:Electricity [J] !Hourly
End of Data Dictionary
1,SAN-JOSE-INTL_724945_CZ2010,  37.37,-121.93,  -8.00,  16.00
2,1, 1, 1, 0, 1, 0.00,60.00,Holiday
11,66341557.518742408
47,24156278.99999996
71,4835078.999999999
346,19321199.999999968
993,18722069.99999997
1017,18722069.99999997
1497,1042349.4213998953
1533,0.0
1557,0.0
2228,805502.0733320596
2366,1042349.4213998953
4114,22657706.445410395
4126,8458341.339612136
4162,14199365.10579826
4210,0.0
4236,0.0
4348,0.0
4473,0.0
2,1, 1, 1, 0, 2, 0.00,60.00,Holiday
11,67146844.29876013
47,24156278.99999996
71,4835078.999999999
346,19321199.999999968
993,18722069.99999997
1017,18722069.99999997
1497,1042592.5507880347
1533,0.0
1557,0.0
2228,1610788.8533497877
2366,1042592.5507880347
4114,22657706.445410395
4126,8458341.339612136
4162,14199365.10579826
4210,0.0
4236,0.0
4348,0.0
4473,0.0
2,1, 1, 1, 0, 3, 0.00,60.00,Holiday
11,67146862.32719863
47,24156278.99999996
71,4835078.999999999
346,19321199.999999968
993,18722069.99999997
1017,18722069.99999997
1497,1303235.4090085263
1533,0.0
1557,0.0
2228,1610806.8817882795
2366,1303235.4090085263
4114,22657706.445410395
4126,8458341.339612136
4162,14199365.10579826
4210,0.0
4236,0.0
4348,0.0
4473,0.0
2,1, 1, 1, 0, 4, 0.00,60.00,Holiday
11,66334837.45500685
47,24156278.99999996
71,4835078.999999999
346,19321199.999999968
993,18722069.99999997
1017,18722069.99999997
1497,1037175.8276453293
1533,0.0
1557,0.0
2228,798782.0095965132
2366,1037175.8276453293
4114,22657706.445410395
4126,8458341.339612136
4162,14199365.10579826
4210,0.0
4236,0.0
4348,0.0
4473,0.0
2,1, 1, 1, 0, 5, 0.00,60.00,Holiday
11,67133692.27701709
47,24156278.99999996
71,4835078.999999999
346,19321199.999999968
993,18722069.99999997
1017,18722069.99999997
1497,1037410.8491177575
1533,0.0
1557,0.0
2228,1597636.831606752
2366,1037410.8491177575
4114,22657706.445410395
4126,8458341.339612136
4162,14199365.10579826
4210,0.0
4236,0.0
4348,0.0
4473,0.0
2,1, 1, 1, 0, 6, 0.00,60.00,Holiday
11,136883542.3940312
47,52754678.99999992
71,4835078.999999999
346,47919599.99999992
993,47320469.999999929
1017,47320469.999999929
1497,1305365.3753127403
1533,0.0
1557,0.0
2228,1597675.7870477292
2366,1305365.3753127403
4114,24689867.02438388
4126,10490501.918585619
4162,14199365.10579826
4210,10520850.582599646
4236,0.0
4348,0.0
4473,0.0
2,1, 1, 1, 0, 7, 0.00,60.00,Holiday
11,189815256.98592345
47,74203478.99999988
71,4835078.999999999
346,69368399.9999999
993,68769269.9999999
1017,68769269.9999999
1497,281899826.12059298
1533,28597212.921243654
1557,28597212.921243654
2228,805527.6511884739
2366,1042571.6906731902
4114,35401338.49045028
4126,10490501.918585619
4162,14199365.105798258
4210,10635641.84428492
4236,252260041.5086761
4348,0.0
4473,0.0
2,1, 1, 1, 0, 8, 0.00,60.00,Holiday
11,187539099.32638908
47,74200627.58204538
71,4832227.582045493
346,69368399.9999999
993,68769269.9999999
1017,68769269.9999999
1497,155114876.9982656
1533,28597212.921243654
1557,28597212.921243654
2228,2477642.5571625556
2366,1322877.7727715118
4114,31721537.019550124
4126,12197454.19272478
4162,14199365.10579826
4210,10345137.977483836
4236,125194786.30425044
4348,0.0
4473,24884.190147276688
2,1, 1, 1, 0, 9, 0.00,60.00,Holiday
11,204956933.1912647
47,77864265.5937491
71,8495865.593749222
346,69368399.9999999
993,72641339.99999988
1017,72641339.99999988
1497,420783889.26430246
1533,0.0
1557,0.0
2228,2520514.1093653428
2366,1336475.4599489636
4114,41367685.43024585
4126,23535822.373083049
4162,14199365.10579826
4210,9810828.65358571
4236,419447413.8043535
4348,0.0
4473,752299.4043187723
2,1, 1, 1, 0,10, 0.00,60.00,Holiday
11,196749354.88134084
47,77818802.32999805
71,8450402.329998168
346,69368399.9999999
993,72641339.99999988
1017,72641339.99999988
1497,320040828.1709701
1533,0.0
1557,0.0
2228,2564791.766542364
2366,1349950.3648175896
4114,33894970.289074618
4126,16555235.038866636
4162,14199365.10579826
4210,9565538.117847464
4236,318690877.80615249
4348,0.0
4473,263912.3778784181
2,1, 1, 1, 0,11, 0.00,60.00,Holiday
11,203901677.5395187
47,78179413.57358897
71,30259813.573589013
346,47919599.99999992
993,74424959.99999996
1017,74424959.99999996
1497,281920596.34052649
1533,0.0
1557,0.0
2228,5909596.674549982
2366,2047760.4020381144
4114,35374370.837795909
4126,16519577.605455209
4162,14199365.10579826
4210,9802823.513090814
4236,279872835.9384883
4348,0.0
4473,210512.94049315007
2,1, 1, 1, 0,12, 0.00,60.00,Holiday
11,204774519.79446379
47,78042289.0661919
71,30122689.06619194
346,47919599.99999992
993,74424959.99999996
1017,74424959.99999996
1497,302668018.42729046
1533,11438885.168497468
1557,11438885.168497468
2228,6032014.063980034
2366,2378471.215739386
4114,35909482.4757853
4126,16519577.605455209
4162,14199365.10579826
4210,10157991.273044715
4236,288850662.0430536
4348,0.0
4473,207782.91546192103
2,1, 1, 1, 0,13, 0.00,60.00,Holiday
11,232294393.02220703
47,88622815.562555
71,40703215.562555018
346,47919599.99999992
993,89913239.99999997
1017,89913239.99999997
1497,253425468.69121749
1533,11438885.168497468
1557,11438885.168497468
2228,7422368.774379947
2366,2322923.8512810126
4114,35897269.334788959
4126,16519577.605455209
4162,14199365.10579826
4210,10237320.423191779
4236,239663659.67143903
4348,0.0
4473,201378.92729143986
2,1, 1, 1, 0,14, 0.00,60.00,Holiday
11,232011694.94099517
47,88809111.32427994
71,40889511.32427996
346,47919599.99999992
993,89913239.99999997
1017,89913239.99999997
1497,220443004.93690313
1533,0.0
1557,0.0
2228,7423152.038353229
2366,2440364.146462477
4114,35634404.26257947
4126,16519577.605455209
4162,14199365.10579826
4210,10031703.274872618
4236,218002640.79044069
4348,0.0
4473,200084.04090998593
2,1, 1, 1, 0,15, 0.00,60.00,Holiday
11,230839228.9182573
47,88882918.73127637
71,40963318.731276389
346,47919599.99999992
993,89913239.99999997
1017,89913239.99999997
1497,207875911.8066826
1533,0.0
1557,0.0
2228,6456479.770562271
2366,2265422.9436758218
4114,35467340.656300339
4126,16519577.605455209
4162,14199365.10579826
4210,9919731.371472732
4236,205610488.86300678
4348,0.0
4473,199518.38864569844
2,1, 1, 1, 0,16, 0.00,60.00,Holiday
11,230033724.58083136
47,88916847.15711832
71,40997247.15711835
346,47919599.99999992
993,89913239.99999997
1017,89913239.99999997
1497,165951905.8023911
1533,0.0
1557,0.0
2228,7108714.502857522
2366,2421342.2857086488
4114,34250553.895344559
4126,16519577.605455209
4162,14199365.10579826
4210,9645498.18752797
4236,163530563.51668249
4348,0.0
4473,198870.8379830654
2,1, 1, 1, 0,17, 0.00,60.00,Holiday
11,230355664.7246971
47,89606015.86764741
71,41686415.86764742
346,47919599.99999992
993,89913239.99999997
1017,89913239.99999997
1497,174599783.77615897
1533,28597212.921243654
1557,28597212.921243654
2228,7504095.377818655
2366,2448932.650793167
4114,33561124.87315687
4126,16519577.605455209
4162,14199365.10579826
4210,9572479.178379968
4236,143553638.20412214
4348,0.0
4473,198709.42769430628
2,1, 1, 1, 0,18, 0.00,60.00,Holiday
11,204221512.04973305
47,78647111.99999994
71,30727511.99999999
346,47919599.99999992
993,74424959.99999996
1017,74424959.99999996
1497,221754614.79120655
1533,28597212.921243654
1557,28597212.921243654
2228,7263365.507422698
2366,2106254.127475892
4114,33870967.91637269
4126,16519577.605455209
4162,14199365.10579826
4210,9814228.760708625
4236,191051147.74248699
4348,0.0
4473,200877.86522915693
2,1, 1, 1, 0,19, 0.00,60.00,Holiday
11,242916344.6374724
47,106749035.99999982
71,15931835.999999995
346,90817199.99999984
993,101834279.99999984
1017,101834279.99999984
1497,218013844.75337748
1533,28597212.921243654
1557,28597212.921243654
2228,4733062.650971762
2366,2003357.5117128343
4114,29361167.566517898
4126,14487417.026481724
4162,14199365.10579826
4210,30794.728653906153
4236,187413274.32042099
4348,0.0
4473,208003.69132907509
2,1, 1, 1, 0,20, 0.00,60.00,Holiday
11,271597713.489692
47,124250678.9999998
71,4835078.999999999
346,119415599.9999998
993,118816469.99999982
1017,118816469.99999982
1497,4786681.437528858
1533,0.0
1557,0.0
2228,5748949.232507431
2366,2025353.3849540735
4114,22781615.257184864
4126,8458341.339612136
4162,14199365.10579826
4210,0.0
4236,2761328.052574785
4348,0.0
4473,0.0
2,1, 1, 1, 0,21, 0.00,60.00,Holiday
11,298050969.5926112
47,138549878.9999998
71,4835078.999999999
346,133714799.99999979
993,133115669.99999979
1017,133115669.99999979
1497,2691198.9280824374
1533,0.0
1557,0.0
2228,3684669.1139103116
2366,1680594.9419581847
4114,22700751.478701235
4126,8458341.339612136
4162,14199365.10579826
4210,0.0
4236,1010603.9861242529
4348,0.0
4473,0.0
2,1, 1, 1, 0,22, 0.00,60.00,Holiday
11,269275071.54987856
47,124250678.9999998
71,4835078.999999999
346,119415599.9999998
993,118816469.99999982
1017,118816469.99999982
1497,3223964.7546506368
1533,0.0
1557,0.0
2228,3481377.067035955
2366,1648238.371949375
4114,22726545.48284287
4126,8458341.339612136
4162,14199365.10579826
4210,0.0
4236,1575726.3827012617
4348,0.0
4473,0.0
2,1, 1, 1, 0,23, 0.00,60.00,Holiday
11,210179691.94118247
47,95652278.99999984
71,4835078.999999999
346,90817199.99999984
993,90218069.99999985
1017,90218069.99999985
1497,1322970.4820917529
1533,0.0
1557,0.0
2228,1651636.495772324
2366,1322970.4820917529
4114,22657706.445410395
4126,8458341.339612136
4162,14199365.10579826
4210,0.0
4236,0.0
4348,0.0
4473,0.0
2,1, 1, 1, 0,24, 0.00,60.00,Holiday
11,124330624.27759993
47,52754678.99999992
71,4835078.999999999
346,47919599.99999992
993,47320469.999999929
1017,47320469.999999929
1497,1037409.0508265894
1533,0.0
1557,0.0
2228,1597768.832189594
2366,1037409.0508265894
4114,22657706.445410395
4126,8458341.339612136
4162,14199365.10579826
4210,0.0
4236,0.0
4348,0.0
4473,0.0
2,2, 1, 2, 0, 1, 0.00,60.00,Friday
11,66322005.61014674
47,24156278.99999996
71,4835078.999999999
346,19321199.999999968
993,18722069.99999997
1017,18722069.99999997
1497,1029594.0294741696
1533,0.0
1557,0.0
2228,785950.1647363931
2366,1029594.0294741696
4114,22657706.445410395
4126,8458341.339612136
4162,14199365.10579826
4210,0.0
4236,0.0
4348,0.0
4473,0.0
2,2, 1, 2, 0, 2, 0.00,60.00,Friday
11,66328418.446228478
47,24156278.99999996
71,4835078.999999999
346,19321199.999999968
993,18722069.99999997
1017,18722069.99999997
1497,1034376.2304893115
1533,0.0
1557,0.0
2228,792363.0008181334
2366,1034376.2304893115
4114,22657706.445410395
4126,8458341.339612136
4162,14199365.10579826
4210,0.0
4236,0.0
4348,0.0
4473,0.0
2,2, 1, 2, 0, 3, 0.00,60.00,Friday
11,67173846.03715636
47,24156278.99999996
71,4835078.999999999
346,19321199.999999968
993,18722069.99999997
1017,18722069.99999997
1497,2302051.08428438
1533,0.0
1557,0.0
2228,1584699.327980068
2366,1034532.8648234619
4114,22710797.709176344
4126,8458341.339612136
4162,14199365.10579826
4210,0.0
4236,1267518.219460918
4348,0.0
4473,0.0
2,2, 1, 2, 0, 4, 0.00,60.00,Friday
11,66870663.25621908
47,24156278.99999996
71,4835078.999999999
346,19321199.999999968
993,18722069.99999997
1017,18722069.99999997
1497,13918055.33793518
1533,0.0
1557,0.0
2228,785774.011293435
2366,1029570.638019105
4114,23206540.244925705
4126,8458341.339612136
4162,14199365.10579826
4210,0.0
4236,12888484.699916076
4348,0.0
4473,0.0
2,2, 1, 2, 0, 5, 0.00,60.00,Friday
11,67787097.10254774
47,24156278.99999996
71,4835078.999999999
346,19321199.999999968
993,18722069.99999997
1017,18722069.99999997
1497,35350311.65488091
1533,0.0
1557,0.0
2228,785888.405775606
2366,1029589.2182443343
4114,24122859.696772163
4126,8458341.339612136
4162,14199365.10579826
4210,0.0
4236,34320722.436636578
4348,0.0
4473,0.0
2,2, 1, 2, 0, 6, 0.00,60.00,Friday
11,156321667.89343859
47,53890838.99999992
71,5971238.999999999
346,47919599.99999992
993,47871269.999999929
1017,47871269.999999929
1497,30525029.16623289
1533,0.0
1557,0.0
2228,785991.3009222756
2366,1036314.0264165141
4114,25936795.528712743
4126,10490501.918585619
4162,14199365.10579826
4210,27836772.063803615
4236,29488715.139816379
4348,0.0
4473,0.0
2,2, 1, 2, 0, 7, 0.00,60.00,Friday
11,240165443.72805269
47,80361638.99999988
71,5971238.999999999
346,74390399.99999988
993,69320069.9999999
1017,69320069.9999999
1497,1009313297.4970448
1533,28597212.921243654
1557,28597212.921243654
2228,786020.6719427247
2366,1273562.5545236923
4114,61465868.390203598
4126,23655171.40077108
4162,14199365.105798258
4210,27317547.837801108
4236,979442522.0212774
4348,0.0
4473,914297.8281054394
2,2, 1, 2, 0, 8, 0.00,60.00,Friday
11,260379576.45198653
47,95754946.90930653
71,21364546.90930665
346,74390399.99999988
993,83139479.99999988
1017,83139479.99999988
1497,694207397.4328474
1533,28882321.086319496
1557,28882321.086319496
2228,3255604.82147147
2366,1705964.4311018789
4114,44617503.79919882
4126,16544626.198825516
4162,14199365.10579826
4210,33261343.466279016
4236,663619111.915426
4348,0.0
4473,350697.4557307651
2,2, 1, 2, 0, 9, 0.00,60.00,Friday
11,315292532.5313748
47,123245673.0329594
71,48855273.03295952
346,74390399.99999988
993,112981499.99999987
1017,112981499.99999987
1497,510574502.4182241
1533,285108.16507584266
1557,285108.16507584266
2228,4711201.357466223
2366,2442061.240725117
4114,40899858.030532989
4126,16519577.605455209
4162,14199365.10579826
4210,33192360.90455083
4236,507847333.01242306
4348,0.0
4473,261939.20586537996
2,2, 1, 2, 0,10, 0.00,60.00,Friday
11,360901858.48011788
47,149544905.52105106
71,75154505.5210511
346,74390399.99999988
993,143958059.99999995
1017,143958059.99999995
1497,384104735.6051537
1533,285108.16507584266
1557,285108.16507584266
2228,6262678.419184043
2366,2641121.465172182
4114,39118772.01131753
4126,16563760.92363311
4162,14199365.10579826
4210,21796395.785237206
4236,381178505.9749056
4348,0.0
4473,221046.74332821175
2,2, 1, 2, 0,11, 0.00,60.00,Friday
11,310783620.517601
47,128127258.30433974
71,75185658.30433975
346,52941599.9999999
993,122509259.99999996
1017,122509259.99999996
1497,332558403.3354638
1533,513194.69713651677
1557,513194.69713651677
2228,7858563.993783228
2366,3404210.82283005
4114,38685495.456546898
4126,16615871.057722118
4162,14199365.10579826
4210,13395665.138607793
4236,328640997.8154973
4348,0.0
4473,207377.62432344253
2,2, 1, 2, 0,12, 0.00,60.00,Friday
11,310974039.4897633
47,128470218.41625315
71,75528618.4162532
346,52941599.9999999
993,122509259.99999996
1017,122509259.99999996
1497,260532645.73937626
1533,11952079.865633984
1557,11952079.865633984
2228,11908806.005508943
2366,3954984.3884981547
4114,37004315.41197492
4126,16840899.070441367
4162,14199365.10579826
4210,10880381.228456248
4236,244625581.4852441
4348,0.0
4473,201058.42757018313
2,2, 1, 2, 0,13, 0.00,60.00,Friday
11,307424910.97556677
47,126258418.05305113
71,73316818.05305116
346,52941599.9999999
993,122509259.99999996
1017,122509259.99999996
1497,215323779.62145499
1533,11952079.865633984
1557,11952079.865633984
2228,12409264.601914119
2366,4403899.038761559
4114,35248649.54963195
4126,16899430.869623897
4162,14199365.10579826
4210,10799008.896749899
4236,198967800.71705944
4348,0.0
4473,200309.87421975225
2,2, 1, 2, 0,14, 0.00,60.00,Friday
11,309943962.516978
47,129100159.66204548
71,76158559.66204551
346,52941599.9999999
993,122509259.99999996
1017,122509259.99999996
1497,202124366.1040947
1533,513194.69713651677
1557,513194.69713651677
2228,12006294.618208152
2366,4448115.6718033379
4114,35331619.58023547
4126,16954704.227388655
4162,14199365.10579826
4210,10796402.88701965
4236,197163055.73515488
4348,0.0
4473,200225.7694693334
2,2, 1, 2, 0,15, 0.00,60.00,Friday
11,307337395.11743077
47,128843244.46552034
71,75901644.46552035
346,52941599.9999999
993,122509259.99999996
1017,122509259.99999996
1497,188869389.10343606
1533,427662.2476137639
1557,427662.2476137639
2228,10102771.271722308
2366,3463864.2965898185
4114,35483869.07282085
4126,17036447.49997935
4162,14199365.10579826
4210,10199015.90665281
4236,184977862.55923248
4348,0.0
4473,199234.40071451516
2,2, 1, 2, 0,16, 0.00,60.00,Friday
11,300339327.9800958
47,125153515.09899767
71,72211915.09899768
346,52941599.9999999
993,122509259.99999996
1017,122509259.99999996
1497,141014834.50784273
1533,427662.2476137639
1557,427662.2476137639
2228,9094780.075923628
2366,3273727.1892961675
4114,34258992.92367509
4126,17397809.345551045
4162,14199365.10579826
4210,9124179.206790653
4236,137313445.0709328
4348,0.0
4473,198600.67470879569
2,2, 1, 2, 0,17, 0.00,60.00,Friday
11,305056538.026527
47,129252086.32614191
71,76310486.32614193
346,52941599.9999999
993,122509259.99999996
1017,122509259.99999996
1497,186807079.72040648
1533,29024875.168857416
1557,29024875.168857416
2228,9535822.187209838
2366,3619927.280861275
4114,34293615.18989715
4126,17410427.178035916
4162,14199365.10579826
4210,9266414.057394842
4236,154162277.2706878
4348,0.0
4473,199340.2658834042
2,2, 1, 2, 0,18, 0.00,60.00,Friday
11,299111963.9820229
47,123776342.99999996
71,70834742.99999997
346,52941599.9999999
993,118102859.99999997
1017,118102859.99999997
1497,251535143.9557543
1533,29024875.168857416
1557,29024875.168857416
2228,9645913.123773294
2366,3110620.2960743757
4114,35618170.10000086
4126,16994770.601423988
4162,14199365.10579826
4210,11766992.191874743
4236,219399648.49082256
4348,0.0
4473,201685.5663741974
2,2, 1, 2, 0,19, 0.00,60.00,Friday
11,331904995.2621269
47,143344268.99999986
71,47505068.99999999
346,95839199.99999984
993,135564839.99999989
1017,135564839.99999989
1497,205851932.43168123
1533,28597212.921243654
1557,28597212.921243654
2228,7947188.594348989
2366,2970480.858668397
4114,32673166.31928353
4126,16681599.70880332
4162,14199365.10579826
4210,12170872.10102621
4236,174284238.65176917
4348,0.0
4473,204659.24746855297
2,2, 1, 2, 0,20, 0.00,60.00,Friday
11,387937600.4260615
47,171942668.99999974
71,47505068.99999999
346,124437599.9999998
993,164163239.99999974
1017,164163239.99999974
1497,152176343.76486547
1533,0.0
1557,0.0
2228,7265993.797003413
2366,2475259.3466667758
4114,31274502.23583299
4126,16554197.33453142
4162,14199365.10579826
4210,13085387.773751002
4236,149701084.41819868
4348,0.0
4473,205807.61947450267
2,2, 1, 2, 0,21, 0.00,60.00,Friday
11,402819179.46001526
47,180270629.9999997
71,41533829.999999988
346,138736799.9999998
993,169616699.99999974
1017,169616699.99999974
1497,161001028.3332222
1533,0.0
1557,0.0
2228,6162177.601734574
2366,2473477.83240053
4114,31103835.6590381
4126,16519577.605455209
4162,14199365.10579826
4210,15457329.70734906
4236,158527550.50082166
4348,0.0
4473,208506.4918939225
2,2, 1, 2, 0,22, 0.00,60.00,Friday
11,322497021.4774972
47,143777915.9999998
71,19340315.999999998
346,124437599.9999998
993,132085079.9999998
1017,132085079.9999998
1497,17556879.764895828
1533,0.0
1557,0.0
2228,4643217.853191592
2366,2000448.3631751715
4114,25367979.762247884
4126,10490501.918585619
4162,14199365.10579826
4210,16622827.862058072
4236,15556431.401720655
4348,0.0
4473,0.0
2,2, 1, 2, 0,23, 0.00,60.00,Friday
11,233089433.20608298
47,96788438.99999984
71,5971238.999999999
346,90817199.99999984
993,90768869.99999985
1017,90768869.99999985
1497,1346324.8355155318
1533,0.0
1557,0.0
2228,2542820.420876788
2366,1346324.8355155318
4114,24689867.02438388
4126,10490501.918585619
4162,14199365.10579826
4210,18299436.760822555
4236,0.0
4348,0.0
4473,0.0
2,2, 1, 2, 0,24, 0.00,60.00,Friday
11,147416694.82165436
47,52754678.99999992
71,4835078.999999999
346,47919599.99999992
993,47320469.999999929
1017,47320469.999999929
1497,1053967.7251566919
1533,0.0
1557,0.0
2228,1624510.294239554
2366,1053967.7251566919
4114,24689867.02438388
4126,10490501.918585619
4162,14199365.10579826
4210,21027168.503030987
4236,0.0
4348,0.0
4473,0.0
2,3, 1, 3, 0, 1, 0.00,60.00,Saturday
11,68035583.87320949
47,24156278.99999996
71,4835078.999999999
346,19321199.999999968
993,18722069.99999997
1017,18722069.99999997
1497,1328827.5675651385
1533,0.0
1557,0.0
2228,2499528.427799152
2366,1328827.5675651385
4114,22657706.445410395
4126,8458341.339612136
4162,14199365.10579826
4210,0.0
4236,0.0
4348,0.0
4473,0.0
2,3, 1, 3, 0, 2, 0.00,60.00,Saturday
11,68190376.3838221
47,24156278.99999996
71,4835078.999999999
346,19321199.999999968
993,18722069.99999997
1017,18722069.99999997
1497,5573247.065644713
1533,0.0
1557,0.0
2228,2477644.995156227
2366,1325823.9537850032
4114,22834382.38866593
4126,8458341.339612136
4162,14199365.10579826
4210,0.0
4236,4247423.11185971
4348,0.0
4473,0.0
2,3, 1, 3, 0, 3, 0.00,60.00,Saturday
11,68362987.69519335
47,24156278.99999996
71,4835078.999999999
346,19321199.999999968
993,18722069.99999997
1017,18722069.99999997
1497,29376337.428597064
1533,0.0
1557,0.0
2228,1624057.289980093
2366,1312587.7984424828
4114,23860581.405213305
4126,8458341.339612136
4162,14199365.10579826
4210,0.0
4236,28063749.63015458
4348,0.0
4473,0.0
2,3, 1, 3, 0, 4, 0.00,60.00,Saturday
11,69039550.07610727
47,24156278.99999996
71,4835078.999999999
346,19321199.999999968
993,18722069.99999997
1017,18722069.99999997
1497,65068091.69793814
1533,0.0
1557,0.0
2228,798859.175545959
2366,1039586.5931104581
4114,25362341.90056135
4126,8458341.339612136
4162,14199365.10579826
4210,0.0
4236,64028505.10482767
4348,0.0
4473,0.0
2,3, 1, 3, 0, 5, 0.00,60.00,Saturday
11,71255948.38784936
47,24156278.99999996
71,4835078.999999999
346,19321199.999999968
993,18722069.99999997
1017,18722069.99999997
1497,98598131.99946967
1533,0.0
1557,0.0
2228,1597530.4907295379
2366,1131156.1143213839
4114,26780068.897119874
4126,8458341.339612136
4162,14199365.10579826
4210,0.0
4236,97466975.8851483
4348,0.0
4473,0.0
2,3, 1, 3, 0, 6, 0.00,60.00,Saturday
11,178886080.9851065
47,52754678.99999992
71,4835078.999999999
346,47919599.99999992
993,47320469.999999929
1017,47320469.999999929
1497,93949728.64090276
1533,0.0
1557,0.0
2228,798855.1759298296
2366,1215983.978208127
4114,28604306.873020829
4126,10490501.918585619
4162,14199365.10579826
4210,49407769.9361559
4236,92733744.66269462
4348,0.0
4473,0.0
2,3, 1, 3, 0, 7, 0.00,60.00,Saturday
11,268999433.0857154
47,80361638.99999988
71,5971238.999999999
346,74390399.99999988
993,69320069.9999999
1017,69320069.9999999
1497,1227163769.461537
1533,28597212.921243654
1557,28597212.921243654
2228,1610806.985076343
2366,1263757.755705765
4114,67284021.7984668
4126,21833834.782928736
4162,14199365.10579826
4210,49485300.1622885
4236,1197302798.7845875
4348,0.0
4473,937595.1398839095
2,3, 1, 3, 0, 8, 0.00,60.00,Saturday
11,261220205.4996746
47,83800926.72033109
71,9410526.72033122
346,74390399.99999988
993,73192139.99999988
1017,73192139.99999988
1497,873637121.9141975
1533,28597212.921243654
1557,28597212.921243654
2228,4210542.057054415
2366,1751347.3194567238
4114,50051926.86249401
4126,16521877.853621692
4162,14199365.10579826
4210,49482781.93374518
4236,843288561.673497
4348,0.0
4473,481887.9260499341
2,3, 1, 3, 0, 9, 0.00,60.00,Saturday
11,289719416.66795328
47,100676854.6363982
71,26286454.63639835
346,74390399.99999988
993,90883619.99999987
1017,90883619.99999987
1497,628821678.4343114
1533,285108.16507584266
1557,285108.16507584266
2228,5004755.648718293
2366,2045515.7224060666
4114,43244520.88329363
4126,16519577.605455209
4162,14199365.10579826
4210,49553272.97550282
4236,626491054.5468295
4348,0.0
4473,356392.5240403991
2,3, 1, 3, 0,10, 0.00,60.00,Saturday
11,324960746.73514845
47,118178927.11860773
71,43788527.11860786
346,74390399.99999988
993,114116039.99999988
1017,114116039.99999988
1497,437206980.14196416
1533,285108.16507584266
1557,285108.16507584266
2228,4829483.609033636
2366,2412808.2475640757
4114,38455195.141436439
4126,16563811.898061578
4162,14199365.10579826
4210,49109169.64517472
4236,434509063.7293242
4348,0.0
4473,271931.22089604029
2,3, 1, 3, 0,11, 0.00,60.00,Saturday
11,307584452.2782973
47,116782230.60511342
71,63840630.60511344
346,52941599.9999999
993,115899659.99999997
1017,115899659.99999997
1497,334291462.0364274
1533,513194.69713651677
1557,513194.69713651677
2228,9081937.71446015
2366,2823449.771107848
4114,36598437.24745664
4126,16654885.281358149
4162,14199365.105798258
4210,28994293.372166877
4236,330954817.56818297
4348,0.0
4473,227893.33910033367
2,3, 1, 3, 0,12, 0.00,60.00,Saturday
11,293509300.74315747
47,116857152.56278825
71,63915552.56278825
346,52941599.9999999
993,115899659.99999997
1017,115899659.99999997
1497,252892325.4223119
1533,11952079.865633984
1557,11952079.865633984
2228,10565653.181277354
2366,3375338.0879364425
4114,34745338.98010222
4126,16913764.012008579
4162,14199365.10579826
4210,15231986.15866289
4236,237564907.46874149
4348,0.0
4473,209509.86032692097
2,3, 1, 3, 0,13, 0.00,60.00,Saturday
11,285269445.7811319
47,113517647.93950053
71,60576047.93950054
346,52941599.9999999
993,114247259.99999997
1017,114247259.99999997
1497,196935250.4870915
1533,11952079.865633984
1557,11952079.865633984
2228,11603997.68378151
2366,3683610.4723591019
4114,33563277.570729639
4126,16983756.14202233
4162,14199365.10579826
4210,11830282.999391616
4236,181299560.1490984
4348,303359.91181858818
4473,203619.6759101426
2,3, 1, 3, 0,14, 0.00,60.00,Saturday
11,286290364.79740098
47,113180799.84266123
71,60239199.84266125
346,52941599.9999999
993,114247259.99999997
1017,114247259.99999997
1497,158869401.04536853
1533,513194.69713651677
1557,513194.69713651677
2228,12659328.786923211
2366,3698531.6442043075
4114,33129694.54810939
4126,17094074.570421824
4162,14199365.10579826
4210,11521269.069887683
4236,154657674.7040277
4348,1349965.4845541437
4473,202047.06526550573
2,3, 1, 3, 0,15, 0.00,60.00,Saturday
11,283880113.13285949
47,113162497.29354179
71,60220897.29354182
346,52941599.9999999
993,114247259.99999997
1017,114247259.99999997
1497,125237799.50461054
1533,427662.2476137639
1557,427662.2476137639
2228,9783259.04067907
2366,3054531.3738794878
4114,33138541.747188324
4126,17565244.5795879
4162,14199365.10579826
4210,11218796.37316659
4236,121755605.88311728
4348,2129660.275613796
4473,200098.40267007546
2,3, 1, 3, 0,16, 0.00,60.00,Saturday
11,282852840.41416898
47,113409630.97942034
71,60468030.97942036
346,52941599.9999999
993,114247259.99999997
1017,114247259.99999997
1497,103884203.63120497
1533,427662.2476137639
1557,427662.2476137639
2228,9451035.020961537
2366,3009625.1428120916
4114,33101790.62443161
4126,17869771.55435971
4162,14199365.10579826
4210,10844531.142854048
4236,100446916.2407791
4348,1599594.8029252904
4473,198997.8435762924
2,3, 1, 3, 0,17, 0.00,60.00,Saturday
11,286268773.21992179
47,118452784.37378162
71,65511184.373781647
346,52941599.9999999
993,114247259.99999997
1017,114247259.99999997
1497,142024554.96094353
1533,29024875.168857416
1557,29024875.168857416
2228,9106527.660799668
2366,3007236.4736206748
4114,33077863.985319497
4126,17967796.39616609
4162,14199365.10579826
4210,11085272.495957688
4236,109992443.31846544
4348,99850.90713223753
4473,199213.79693119386
2,3, 1, 3, 0,18, 0.00,60.00,Saturday
11,279527558.39873948
47,111937382.99999996
71,64017782.99999998
346,47919599.99999992
993,113145659.99999997
1017,113145659.99999997
1497,184138557.46696855
1533,28597212.921243654
1557,28597212.921243654
2228,9277273.094751589
2366,2931654.8523798335
4114,33126527.419423656
4126,17356550.712993355
4162,14199365.10579826
4210,11839308.31828025
4236,152609689.69334505
4348,0.0
4473,201406.56628409873
2,3, 1, 3, 0,19, 0.00,60.00,Saturday
11,309249088.47006276
47,128942549.99999987
71,38125349.999999988
346,90817199.99999984
993,125066699.99999988
1017,125066699.99999988
1497,194570711.02030278
1533,28597212.921243654
1557,28597212.921243654
2228,9295195.840830507
2366,2782439.474475129
4114,31439939.19303497
4126,16519639.150200345
4162,14199365.10579826
4210,14297596.460210696
4236,163191058.624584
4348,0.0
4473,207106.97598689033
2,3, 1, 3, 0,20, 0.00,60.00,Saturday
11,317185185.9457979
47,142745273.9999998
71,23329673.999999994
346,119415599.9999998
993,138176819.9999998
1017,138176819.9999998
1497,175396885.96906645
1533,0.0
1557,0.0
2228,7178630.438497287
2366,2329995.3171592645
4114,28841965.373209195
4126,14487417.026481724
4162,14199365.10579826
4210,30306.602362838315
4236,173066890.65190719
4348,0.0
4473,212189.5317289572
2,3, 1, 3, 0,21, 0.00,60.00,Saturday
11,344136851.657449
47,157044473.99999977
71,23329673.999999994
346,133714799.99999979
993,152476019.99999977
1017,152476019.99999977
1497,204908500.1608256
1533,0.0
1557,0.0
2228,5612965.02335936
2366,2286031.722133815
4114,28748057.046889858
4126,14487417.026481724
4162,14199365.10579826
4210,36087.48099375081
4236,202622468.43869186
4348,0.0
4473,219248.10620639439
2,3, 1, 3, 0,22, 0.00,60.00,Saturday
11,284242947.2418392
47,127949597.9999998
71,8533997.999999999
346,119415599.9999998
993,122688539.9999998
1017,122688539.9999998
1497,273824487.3230951
1533,0.0
1557,0.0
2228,4167223.70630189
2366,1709328.3067992863
4114,29138652.826088959
4126,14487417.026481724
4162,14199365.10579826
4210,49280.935972602514