Program Version,EnergyPlus, Version 9.0.1-bb7ca4f0da, YMD=2019.12.18 16:34
1,5,Environment Title[],Latitude[deg],Longitude[deg],Time Zone[],Elevation[m]
2,8,Day of Simulation[],Month[],Day of Month[],DST Indicator[1=yes 0=no],Hour[],StartMinute[],EndMinute[],DayType
3,5,Cumulative Day of Simulation[],Month[],Day of Month[],DST Indicator[1=yes 0=no],DayType  ! When Daily Meters Requested
4,2,Cumulative Days of Simulation[],Month[]  ! When Monthly Meters Requested
5,1,Cumulative Days of Simulation[] ! When Run Period Meters Requested
6,1,Calendar Year of Simulation[] ! When Annual Meters Requested
1533,1,InteriorEquipment:Gas [J] !Hourly
4480,1,Pumps:Electricity [J] !Hourly
993,1,InteriorEquipment:Electricity [J] !Hourly
47,1,InteriorLights:Electricity [J] !Hourly
11,1,Electricity:Facility [J] !Hourly
4244,1,Heating:Electricity [J] !Hourly
4122,1,Fans:Electricity [J] !Hourly
4355,1,Cooling:Electricity [J] !Hourly
1497,1,Gas:Facility [J] !Hourly
2228,1,WaterSystems:Electricity [J] !Hourly
2366,1,WaterSystems:Gas [J] !Hourly
4231,1,Heating:Gas [J] !Hourly
1017,1,Receptacle:InteriorEquipment:Electricity [J] !Hourly
1557,1,Receptacle:InteriorEquipment:Gas [J] !Hourly
71,1,ComplianceLtg:InteriorLights:Electricity [J] !Hourly
346,1,NonComplianceLtg:InteriorLights:Electricity [J] !Hourly
4134,1,General:Fans:Electricity [J] !Hourly
4171,1,ProcessMotors:Fans:Electricity [J] !Hourly
End of Data Dictionary
1,FRESNO_723890_CZ2010,  36.78,-119.72,  -8.00, 102.00
2,1, 1, 1, 0, 1, 0.00,60.00,Holiday
11,55711354.382097888
47,24156278.99999996
71,4835078.999999999
346,19321199.999999968
993,18722069.99999997
1017,18722069.99999997
1497,1042785.6136613768
1533,0.0
1557,0.0
2228,799868.4184821907
2366,1042785.6136613768
4122,12033136.963615735
4134,8488078.333418435
4171,3545058.630197299
4231,0.0
4244,0.0
4355,0.0
4480,0.0
2,1, 1, 1, 0, 2, 0.00,60.00,Holiday
11,56511094.337980408
47,24156278.99999996
71,4835078.999999999
346,19321199.999999968
993,18722069.99999997
1017,18722069.99999997
1497,1043175.0194872605
1533,0.0
1557,0.0
2228,1599608.3743646998
2366,1043175.0194872605
4122,12033136.963615735
4134,8488078.333418435
4171,3545058.630197299
4231,0.0
4244,0.0
4355,0.0
4480,0.0
2,1, 1, 1, 0, 3, 0.00,60.00,Holiday
11,56510922.463710729
47,24156278.99999996
71,4835078.999999999
346,19321199.999999968
993,18722069.99999997
1017,18722069.99999997
1497,1303870.3107207844
1533,0.0
1557,0.0
2228,1599436.5000950252
2366,1303870.3107207844
4122,12033136.963615735
4134,8488078.333418435
4171,3545058.630197299
4231,0.0
4244,0.0
4355,0.0
4480,0.0
2,1, 1, 1, 0, 4, 0.00,60.00,Holiday
11,58272351.80343746
47,24156278.99999996
71,4835078.999999999
346,19321199.999999968
993,18722069.99999997
1017,18722069.99999997
1497,1251159.4682360762
1533,0.0
1557,0.0
2228,1586103.4222396252
2366,1037844.4103275068
4122,13798815.91680155
4134,10253757.28660425
4171,3545058.630197299
4231,213315.0579085696
4244,38.191788020943587
4355,0.0
4480,9045.272608286736
2,1, 1, 1, 0, 5, 0.00,60.00,Holiday
11,57617110.816352117
47,24156278.99999996
71,4835078.999999999
346,19321199.999999968
993,18722069.99999997
1017,18722069.99999997
1497,1478877.0552726854
1533,0.0
1557,0.0
2228,793006.3155725475
2366,1037965.3082057998
4122,13936669.87842105
4134,10391611.24822375
4171,3545058.630197299
4231,440911.7470668855
4244,78.9405499312662
4355,0.0
4480,9006.681808618752
2,1, 1, 1, 0, 6, 0.00,60.00,Holiday
11,120384314.13357932
47,52754678.99999992
71,4835078.999999999
346,47919599.99999992
993,47320469.999999929
1017,47320469.999999929
1497,35603468.5043737
1533,0.0
1557,0.0
2228,1586312.1303614362
2366,1305920.9537934839
4122,18685239.958109555
4134,15140181.327912255
4171,3545058.630197299
4231,34297547.55058022
4244,6140.61041228243
4355,0.0
4480,31472.43469606973
2,1, 1, 1, 0, 7, 0.00,60.00,Holiday
11,179047091.5332442
47,74203478.99999988
71,4835078.999999999
346,69368399.9999999
993,68769269.9999999
1017,68769269.9999999
1497,365942372.3896266
1533,28597212.921243654
1557,28597212.921243654
2228,1599591.7364797
2366,1043144.4284451788
4122,34437392.819179419
4134,15249789.681162833
4171,3545058.630197299
4231,336302015.0399379
4244,5130.661701597561
4355,0.0
4480,32227.31588357329
2,1, 1, 1, 0, 8, 0.00,60.00,Holiday
11,171011668.18866448
47,74199275.8733456
71,4830875.873345729
346,69368399.9999999
993,68769269.9999999
1017,68769269.9999999
1497,219970406.07188208
1533,28597212.921243654
1557,28597212.921243654
2228,2043555.9616175835
2366,1323822.4215976909
4122,25962185.05639058
4134,14188414.870509597
4171,3545058.630197299
4231,190049370.72904075
4244,4935.728296311577
4355,0.0
4480,32445.569014414017
2,1, 1, 1, 0, 9, 0.00,60.00,Holiday
11,192794314.70011888
47,77856131.73071948
71,8487731.7307196
346,69368399.9999999
993,72641339.99999988
1017,72641339.99999988
1497,589901255.8112328
1533,0.0
1557,0.0
2228,2466464.915127294
2366,1337741.445499437
4122,38388775.7162663
4134,26684966.233598129
4171,3545058.6301972989
4231,588563514.3657333
4244,96425.17309066066
4355,0.0
4480,1345177.1649151615
2,1, 1, 1, 0,10, 0.00,60.00,Holiday
11,182529316.72043617
47,77815142.59768412
71,8446742.59768425
346,69368399.9999999
993,72641339.99999988
1017,72641339.99999988
1497,477991326.21441766
1533,0.0
1557,0.0
2228,3020343.5960365075
2366,1351478.6545698425
4122,28677583.22251664
4134,16619761.040931618
4171,3545058.630197299
4231,476639847.5598478
4244,66887.68374947019
4355,0.0
4480,308019.62044940629
2,1, 1, 1, 0,11, 0.00,60.00,Holiday
11,188632333.56374265
47,78140587.82625164
71,30220987.82625169
346,47919599.99999992
993,74424959.99999996
1017,74424959.99999996
1497,438709341.3888605
1533,0.0
1557,0.0
2228,5889018.195621089
2366,2161385.9698369258
4122,30049435.820188166
4134,16490138.123531126
4171,3545058.630197299
4231,436547955.41902366
4244,48646.17726363744
4355,0.0
4480,79685.54441811443
2,1, 1, 1, 0,12, 0.00,60.00,Holiday
11,187732630.2299877
47,78083940.03337977
71,30164340.03337981
346,47919599.99999992
993,74424959.99999996
1017,74424959.99999996
1497,412271918.20606699
1533,11438885.168497468
1557,11438885.168497468
2228,6012757.431725084
2366,2273488.6777964339
4122,29112237.850237788
4134,16490138.123531126
4171,3545058.630197299
4231,398559544.35977306
4244,43724.95511018697
4355,0.0
4480,55009.95953485553
2,1, 1, 1, 0,13, 0.00,60.00,Holiday
11,214413853.36813934
47,88946611.56477535
71,41027011.56477536
346,47919599.99999992
993,89913239.99999997
1017,89913239.99999997
1497,338239336.5025299
1533,11438885.168497468
1557,11438885.168497468
2228,7406661.422006872
2366,2454089.0317008679
4122,28082611.590204304
4134,16490138.123531126
4171,3545058.630197299
4231,324346362.30233159
4244,31015.63610525901
4355,0.0
4480,33713.15504752755
2,1, 1, 1, 0,14, 0.00,60.00,Holiday
11,212644385.90225763
47,89078333.41403555
71,41158733.41403556
346,47919599.99999992
993,89913239.99999997
1017,89913239.99999997
1497,249875482.70339758
1533,0.0
1557,0.0
2228,7407382.113174466
2366,2473088.9367677925
4122,26193813.871705645
4134,16490138.123531126
4171,3545058.630197299
4231,247402393.7666298
4244,22744.875642930747
4355,0.0
4480,28871.627699096123
2,1, 1, 1, 0,15, 0.00,60.00,Holiday
11,211296033.17517749
47,89119377.99751744
71,41199777.99751745
346,47919599.99999992
993,89913239.99999997
1017,89913239.99999997
1497,203343856.7259641
1533,0.0
1557,0.0
2228,7245243.246015763
2366,2317651.155159748
4122,24971375.055498545
4134,16490138.123531126
4171,3545058.630197299
4231,201026205.57080437
4244,18636.735148377906
4355,0.0
4480,28160.140997359973
2,1, 1, 1, 0,16, 0.00,60.00,Holiday
11,211952078.2703049
47,89242007.99810452
71,41322407.99810454
346,47919599.99999992
993,89913239.99999997
1017,89913239.99999997
1497,253256653.64445374
1533,0.0
1557,0.0
2228,6878800.000803773
2366,2232091.914356962
4122,25863884.440416956
4134,16490138.123531126
4171,3545058.630197299
4231,251024561.73009677
4244,24738.889171566727
4355,0.0
4480,29406.941808081632
2,1, 1, 1, 0,17, 0.00,60.00,Holiday
11,214422130.05702905
47,89700192.77214182
71,41780592.77214184
346,47919599.99999992
993,89913239.99999997
1017,89913239.99999997
1497,337338165.2613772
1533,28597212.921243654
1557,28597212.921243654
2228,7559871.7629280979
2366,2456879.0202801509
4122,27183654.948846014
4134,16490138.123531126
4171,3545058.630197299
4231,306284073.3198534
4244,30974.254238200698
4355,0.0
4480,34196.318874899414
2,1, 1, 1, 0,18, 0.00,60.00,Holiday
11,187888072.56617678
47,78647111.99999994
71,30727511.99999999
346,47919599.99999992
993,74424959.99999996
1017,74424959.99999996
1497,389959314.54779246
1533,28597212.921243654
1557,28597212.921243654
2228,6581669.583970459
2366,2413523.892034347
4122,28151855.96785556
4134,16490138.123531126
4171,3545058.630197299
4231,358948577.7345145
4244,38783.99316243459
4355,0.0
4480,43691.021188404564
2,1, 1, 1, 0,19, 0.00,60.00,Holiday
11,236209744.71121095
47,106749035.99999982
71,15931835.999999995
346,90817199.99999984
993,101834279.99999984
1017,101834279.99999984
1497,313275706.9945294
1533,28597212.921243654
1557,28597212.921243654
2228,5655117.57964235
2366,1833653.2512739923
4122,21882274.8676719
4134,14596867.416050595
4171,3545058.630197299
4231,282844840.8220118
4244,40962.682983680046
4355,0.0
4480,48073.580913178084
2,1, 1, 1, 0,20, 0.00,60.00,Holiday
11,260718693.3213572
47,124250678.9999998
71,4835078.999999999
346,119415599.9999998
993,118816469.99999982
1017,118816469.99999982
1497,18648957.8865534
1533,0.0
1557,0.0
2228,4808143.628494633
2366,1914590.5028385616
4122,12843400.692862789
4134,8488078.333418435
4171,3545058.630197299
4231,16734367.383714838
4244,0.0
4355,0.0
4480,0.0
2,1, 1, 1, 0,21, 0.00,60.00,Holiday
11,288489239.7247856
47,138549878.9999998
71,4835078.999999999
346,133714799.99999979
993,133115669.99999979
1017,133115669.99999979
1497,7108841.917644099
1533,0.0
1557,0.0
2228,4531943.663571219
2366,1963603.9376154468
4122,12291747.061214693
4134,8488078.333418435
4171,3545058.630197299
4231,5145237.980028653
4244,0.0
4355,0.0
4480,0.0
2,1, 1, 1, 0,22, 0.00,60.00,Holiday
11,259008985.2036579
47,124250678.9999998
71,4835078.999999999
346,119415599.9999998
993,118816469.99999982
1017,118816469.99999982
1497,10411359.383784384
1533,0.0
1557,0.0
2228,3461093.6089412427
2366,1374936.159753494
4122,12480742.594716877
4134,8488078.333418435
4171,3545058.630197299
4231,9036423.22403089
4244,0.0
4355,0.0
4480,0.0
2,1, 1, 1, 0,23, 0.00,60.00,Holiday
11,200364648.9350213
47,95652278.99999984
71,4835078.999999999
346,90817199.99999984
993,90218069.99999985
1017,90218069.99999985
1497,1324047.2245107834
1533,0.0
1557,0.0
2228,2461162.9714057778
2366,1324047.2245107834
4122,12033136.963615735
4134,8488078.333418435
4171,3545058.630197299
4231,0.0
4244,0.0
4355,0.0
4480,0.0
2,1, 1, 1, 0,24, 0.00,60.00,Holiday
11,112901391.63386297
47,52754678.99999992
71,4835078.999999999
346,47919599.99999992
993,47320469.999999929
1017,47320469.999999929
1497,1139095.2424729742
1533,0.0
1557,0.0
2228,793105.6702472684
2366,1139095.2424729742
4122,12033136.963615735
4134,8488078.333418435
4171,3545058.630197299
4231,0.0
4244,0.0
4355,0.0
4480,0.0
2,2, 1, 2, 0, 1, 0.00,60.00,Friday
11,55691647.86409192
47,24156278.99999996
71,4835078.999999999
346,19321199.999999968
993,18722069.99999997
1017,18722069.99999997
1497,1105675.548120653
1533,0.0
1557,0.0
2228,780161.9004762144
2366,1105675.548120653
4122,12033136.963615735
4134,8488078.333418435
4171,3545058.630197299
4231,0.0
4244,0.0
4355,0.0
4480,0.0
2,2, 1, 2, 0, 2, 0.00,60.00,Friday
11,56484584.94659784
47,24156278.99999996
71,4835078.999999999
346,19321199.999999968
993,18722069.99999997
1017,18722069.99999997
1497,1116470.5296843842
1533,0.0
1557,0.0
2228,1573098.982982128
2366,1116470.5296843842
4122,12033136.963615735
4134,8488078.333418435
4171,3545058.630197299
4231,0.0
4244,0.0
4355,0.0
4480,0.0
2,2, 1, 2, 0, 3, 0.00,60.00,Friday
11,55698082.16171041
47,24156278.99999996
71,4835078.999999999
346,19321199.999999968
993,18722069.99999997
1017,18722069.99999997
1497,1034713.4640768634
1533,0.0
1557,0.0
2228,786596.1980947106
2366,1034713.4640768634
4122,12033136.963615735
4134,8488078.333418435
4171,3545058.630197299
4231,0.0
4244,0.0
4355,0.0
4480,0.0
2,2, 1, 2, 0, 4, 0.00,60.00,Friday
11,55691610.1778321
47,24156278.99999996
71,4835078.999999999
346,19321199.999999968
993,18722069.99999997
1017,18722069.99999997
1497,1029699.6500795048
1533,0.0
1557,0.0
2228,780124.2142163985
2366,1029699.6500795048
4122,12033136.963615735
4134,8488078.333418435
4171,3545058.630197299
4231,0.0
4244,0.0
4355,0.0
4480,0.0
2,2, 1, 2, 0, 5, 0.00,60.00,Friday
11,59516755.12557379
47,24156278.99999996
71,4835078.999999999
346,19321199.999999968
993,18722069.99999997
1017,18722069.99999997
1497,1582233.9360711633
1533,0.0
1557,0.0
2228,780035.2033644642
2366,1029730.0598114394
4122,15840202.793226364
4134,12295144.163029064
4171,3545058.630197299
4231,552503.876259724
4244,98.91993153106569
4355,0.0
4480,18069.209051460464
2,2, 1, 2, 0, 6, 0.00,60.00,Friday
11,123595047.80661838
47,53890838.99999992
71,5971238.999999999
346,47919599.99999992
993,47871269.999999929
1017,47871269.999999929
1497,166188208.922228
1533,0.0
1557,0.0
2228,1560176.2568503959
2366,1036620.4708827593
4122,20019697.05312042
4134,16474638.422923118
4171,3545058.630197299
4231,165151588.45134524
4244,32182.080581994174
4355,0.0
4480,220883.41606560219
2,2, 1, 2, 0, 7, 0.00,60.00,Friday
11,198407257.05939699
47,80361638.99999988
71,5971238.999999999
346,74390399.99999988
993,69320069.9999999
1017,69320069.9999999
1497,853465859.4557827
1533,28597212.921243654
1557,28597212.921243654
2228,780181.9466466975
2366,1034529.7157843245
4122,46120655.60400793
4134,25544603.000717537
4171,3545058.630197299
4231,823834116.8187548
4244,112327.56519199291
4355,0.0
4480,1712382.9435505174
2,2, 1, 2, 0, 8, 0.00,60.00,Friday
11,210753551.17857126
47,95889715.57447404
71,21499315.574474165
346,74390399.99999988
993,83139479.99999988
1017,83139479.99999988
1497,538180155.8054507
1533,28882321.086319496
1557,28882321.086319496
2228,2572569.6185738539
2366,1956432.2454100303
4122,28733284.668964369
4134,16570918.500590582
4171,3545058.630197299
4231,507341402.47372117
4244,74519.18364558519
4355,0.0
4480,343982.1329134201
2,2, 1, 2, 0, 9, 0.00,60.00,Friday
11,268613909.58083799
47,125103015.80574492
71,50712615.80574506
346,74390399.99999988
993,112981499.99999987
1017,112981499.99999987
1497,350212109.1501301
1533,285108.16507584266
1557,285108.16507584266
2228,4833702.909069747
2366,2292111.912943643
4122,25578349.81068484
4134,16490138.123531126
4171,3545058.630197299
4231,347634889.0721106
4244,48185.08369413039
4355,0.0
4480,69155.9716444079
2,2, 1, 2, 0,10, 0.00,60.00,Friday
11,326555052.9642929
47,150650858.5985847
71,76260458.59858476
346,74390399.99999988
993,143958059.99999995
1017,143958059.99999995
1497,272000083.02519467
1533,285108.16507584266
1557,285108.16507584266
2228,6869334.103188392
2366,2790367.692326033
4122,25008523.82078953
4134,16518846.305990469
4171,3545058.630197299
4231,268924607.1677928
4244,32291.1308280146
4355,0.0
4480,35985.310902356934
2,2, 1, 2, 0,11, 0.00,60.00,Friday
11,286799257.9101757
47,129548227.68416927
71,76606627.68416929
346,52941599.9999999
993,122509259.99999996
1017,122509259.99999996
1497,293960569.8245214
1533,513194.69713651677
1557,513194.69713651677
2228,7851091.323272521
2366,3397156.202655781
4122,26828674.29896412
4134,16518841.95761317
4171,3545058.630197299
4231,290050218.9247291
4244,29260.237364177912
4355,0.0
4480,32744.36640563685
2,2, 1, 2, 0,12, 0.00,60.00,Friday
11,289655847.6933224
47,128621653.68680984
71,75680053.68680987
346,52941599.9999999
993,122509259.99999996
1017,122509259.99999996
1497,287790903.47445467
1533,11952079.865633984
1557,11952079.865633984
2228,12043054.423914286
2366,4063027.9070890045
4122,26422740.289039297
4134,16704951.01756822
4171,3545058.630197299
4231,271775795.7017317
4244,27782.66522781833
4355,0.0
4480,31356.62833117213
2,2, 1, 2, 0,13, 0.00,60.00,Friday
11,284032797.42423388
47,125337690.03004691
71,72396090.03004694
346,52941599.9999999
993,122509259.99999996
1017,122509259.99999996
1497,226401502.5109665
1533,11952079.865633984
1557,11952079.865633984
2228,12391275.843140806
2366,4369589.427723408
4122,23738737.002992084
4134,16736889.485359319
4171,3545058.630197299
4231,210079833.2176091
4244,25770.08526943838
4355,0.0
4480,30064.46278458066
2,2, 1, 2, 0,14, 0.00,60.00,Friday
11,280602464.9422419
47,124491467.38462661
71,71549867.38462663
346,52941599.9999999
993,122509259.99999996
1017,122509259.99999996
1497,139600519.44370569
1533,513194.69713651677
1557,513194.69713651677
2228,12218019.195365675
2366,4557265.395262258
4122,21335088.468870194
4134,16783394.10437526
4171,3545058.630197299
4231,134530059.3513069
4244,20306.921625070918
4355,0.0
4480,28322.971754438346
2,2, 1, 2, 0,15, 0.00,60.00,Friday
11,278690914.90045747
47,125104190.453509
71,72162590.45350904
346,52941599.9999999
993,122509259.99999996
1017,122509259.99999996
1497,105725339.91336635
1533,427662.2476137639
1557,427662.2476137639
2228,10271703.246243108
2366,3453045.4780408006
4122,20760581.385109404
4134,16896360.62229843
4171,3545058.630197299
4231,101844632.1877118
4244,16940.466309780008
4355,0.0
4480,28239.349286078497
2,2, 1, 2, 0,16, 0.00,60.00,Friday
11,280042478.13760879
47,127513409.40257006
71,74571809.40257007
346,52941599.9999999
993,122509259.99999996
1017,122509259.99999996
1497,75979159.59797763
1533,427662.2476137639
1557,427662.2476137639
2228,8835136.518519987
2366,3318772.9031491458
4122,21143109.05735764
4134,17437979.527742547
4171,3545058.630197299
4231,72232724.4472147
4244,12273.371259889056
4355,0.0
4480,29289.787901229418
2,2, 1, 2, 0,17, 0.00,60.00,Friday
11,283538455.86375918
47,130309948.20168492
71,77368348.20168495
346,52941599.9999999
993,122509259.99999996
1017,122509259.99999996
1497,109417409.06162296
1533,29024875.168857416
1557,29024875.168857416
2228,9541332.6713901
2366,3640273.0934019407
4122,21135900.317555377
4134,17367834.516303109
4171,3545058.630197299
4231,76752260.79936362
4244,12814.528309930125
4355,0.0
4480,29200.14481892801
2,2, 1, 2, 0,18, 0.00,60.00,Friday
11,272536955.00339367
47,123776342.99999996
71,70834742.99999997
346,52941599.9999999
993,118102859.99999997
1017,118102859.99999997
1497,135826539.26115079
1533,29024875.168857416
1557,29024875.168857416
2228,9654711.058151076
2366,3125584.3367692318
4122,20957965.519990203
4134,16981051.52315567
4171,3545058.630197299
4231,103676079.75552413
4244,16766.363820247614
4355,0.0
4480,28309.061432183873
2,2, 1, 2, 0,19, 0.00,60.00,Friday
11,307611478.35414627
47,143344268.99999986
71,47505068.99999999
346,95839199.99999984
993,135564839.99999989
1017,135564839.99999989
1497,175904329.76278074
1533,28597212.921243654
1557,28597212.921243654
2228,8457218.702402022
2366,2982346.3011181249
4122,20189418.01718371
4134,16599431.42516036
4171,3545058.630197299
4231,144324770.54041893
4244,25933.001307657945
4355,0.0
4480,29799.633253086457
2,2, 1, 2, 0,20, 0.00,60.00,Friday
11,362976388.3198297
47,171942668.99999974
71,47505068.99999999
346,124437599.9999998
993,164163239.99999974
1017,164163239.99999974
1497,148758776.24357776
1533,0.0
1557,0.0
2228,6773695.365822847
2366,2483077.112246657
4122,20040061.15632402
4134,16495002.52612672
4171,3545058.630197299
4231,146275699.1313311
4244,26469.280811892157
4355,0.0
4480,30253.51687129715
2,2, 1, 2, 0,21, 0.00,60.00,Friday
11,377153664.856481
47,180270629.9999997
71,41533829.999999988
346,138736799.9999998
993,169616699.99999974
1017,169616699.99999974
1497,162113879.74039293
1533,0.0
1557,0.0
2228,7169584.691251449
2366,2481370.7948104718
4122,20035196.753728425
4134,16490138.123531126
4171,3545058.630197299
4231,159632508.94558246
4244,29372.349149503738
4355,0.0
4480,32181.062351931614
2,2, 1, 2, 0,22, 0.00,60.00,Friday
11,294480534.80158677
47,143777915.9999998
71,19340315.999999998
346,124437599.9999998
993,132085079.9999998
1017,132085079.9999998
1497,65900038.41792011
1533,0.0
1557,0.0
2228,4621417.901400631
2366,2004057.896131212
4122,13955726.709823352
4134,10381349.04089896
4171,3545058.630197299
4231,63895980.5217889
4244,11327.608869502377
4355,0.0
4480,29066.58149358853
2,2, 1, 2, 0,23, 0.00,60.00,Friday
11,204051671.16329203
47,96788438.99999984
71,5971238.999999999
346,90817199.99999984
993,90768869.99999985
1017,90768869.99999985
1497,71021314.48527427
1533,0.0
1557,0.0
2228,2526921.755332747
2366,1347438.5193508403
4122,13926407.67109626
4134,10381349.04089896
4171,3545058.630197299
4231,69673875.96592343
4244,12474.36504284943
4355,0.0
4480,28558.37182034122
2,2, 1, 2, 0,24, 0.00,60.00,Friday
11,115657134.524899
47,52754678.99999992
71,4835078.999999999
346,47919599.99999992
993,47320469.999999929
1017,47320469.999999929
1497,81553700.39843771
1533,0.0
1557,0.0
2228,1613001.1948912373
2366,1313367.7129540528
4122,13926407.67109626
4134,10381349.04089896
4171,3545058.630197299
4231,80240332.68548364
4244,14366.176521713187
4355,0.0
4480,28210.482389829747
2,3, 1, 3, 0, 1, 0.00,60.00,Saturday
11,57394431.08586249
47,24156278.99999996
71,4835078.999999999
346,19321199.999999968
993,18722069.99999997
1017,18722069.99999997
1497,1333606.759353149
1533,0.0
1557,0.0
2228,2482945.122246787
2366,1333606.759353149
4122,12033136.963615735
4134,8488078.333418435
4171,3545058.630197299
4231,0.0
4244,0.0
4355,0.0
4480,0.0
2,3, 1, 3, 0, 2, 0.00,60.00,Saturday
11,56552118.57371771
47,24156278.99999996
71,4835078.999999999
346,19321199.999999968
993,18722069.99999997
1017,18722069.99999997
1497,1326828.4464484424
1533,0.0
1557,0.0
2228,1640632.6101020184
2366,1326828.4464484424
4122,12033136.963615735
4134,8488078.333418435
4171,3545058.630197299
4231,0.0
4244,0.0
4355,0.0
4480,0.0
2,3, 1, 3, 0, 3, 0.00,60.00,Saturday
11,57451545.98860182
47,24156278.99999996
71,4835078.999999999
346,19321199.999999968
993,18722069.99999997
1017,18722069.99999997
1497,3688525.1308739467
1533,0.0
1557,0.0
2228,2419504.0871039817
2366,1050578.3951127518
4122,12153692.90149788
4134,8488078.333418435
4171,3545058.630197299
4231,2637946.7357611947
4244,0.0
4355,0.0
4480,0.0
2,3, 1, 3, 0, 4, 0.00,60.00,Saturday
11,56257563.75271408
47,24156278.99999996
71,4835078.999999999
346,19321199.999999968
993,18722069.99999997
1017,18722069.99999997
1497,13394168.239311155
1533,0.0
1557,0.0
2228,793125.525680461
2366,1300335.2070865015
4122,12586089.227033653
4134,8488078.333418435
4171,3545058.630197299
4231,12093833.032224656
4244,0.0
4355,0.0
4480,0.0
2,3, 1, 3, 0, 5, 0.00,60.00,Saturday
11,58112963.866354357
47,24156278.99999996
71,4835078.999999999
346,19321199.999999968
993,18722069.99999997
1017,18722069.99999997
1497,35352102.70461942
1533,0.0
1557,0.0
2228,1586160.6425354607
2366,1039880.4292927306
4122,13648454.223818925
4134,8488078.333418435
4171,3545058.630197299
4231,34312222.275326687
4244,0.0
4355,0.0
4480,0.0
2,3, 1, 3, 0, 6, 0.00,60.00,Saturday
11,118775904.0830612
47,52754678.99999992
71,4835078.999999999
346,47919599.99999992
993,47320469.999999929
1017,47320469.999999929
1497,228945208.3074406
1533,0.0
1557,0.0
2228,793130.272266927
2366,1085166.9770977779
4122,17587946.407224373
4134,12448218.59145008
4171,3545058.630197299
4231,227860041.33034284
4244,37943.27741017976
4355,0.0
4480,281735.12615973906
2,3, 1, 3, 0, 7, 0.00,60.00,Saturday
11,212444839.03596068
47,80361638.99999988
71,5971238.999999999
346,74390399.99999988
993,69320069.9999999
1017,69320069.9999999
1497,1187385225.3047007
1533,28597212.921243654
1557,28597212.921243654
2228,1599628.7883995837
2366,1274686.5973037126
4122,59287377.684093
4134,24510455.83114829
4171,3545058.630197299
4231,1157513325.7861534
4244,126875.92192456979
4355,0.0
4480,1749247.6415436762
2,3, 1, 3, 0, 8, 0.00,60.00,Saturday
11,201360524.19202314
47,83789723.26029694
71,9399323.26029706
346,74390399.99999988
993,73192139.99999988
1017,73192139.99999988
1497,846232970.7888584
1533,28597212.921243654
1557,28597212.921243654
2228,4490436.186871242
2366,1849239.412458072
4122,38716130.65023631
4134,16635730.452481254
4171,3545058.630197299
4231,815786518.4551566
4244,106348.23991594257
4355,0.0
4480,1065745.8547026986
2,3, 1, 3, 0, 9, 0.00,60.00,Saturday
11,229774127.03591115
47,101255844.3235796
71,26865444.323579737
346,74390399.99999988
993,90883619.99999987
1017,90883619.99999987
1497,636338361.9232683
1533,285108.16507584266
1557,285108.16507584266
2228,4667241.206560856
2366,2187141.4875697928
4122,32357026.944494029
4134,16490138.123531126
4171,3545058.630197299
4231,633866112.2706229
4244,89937.07776428941
4355,0.0
4480,520457.4835124091
2,3, 1, 3, 0,10, 0.00,60.00,Saturday
11,266031007.47755916
47,117998616.28077175
71,43608216.28077188
346,74390399.99999988
993,114116039.99999988
1017,114116039.99999988
1497,466401259.059536
1533,285108.16507584266
1557,285108.16507584266
2228,5772699.313924048
2366,2120659.738564326
4122,27851873.299858326
4134,16518890.934230984
4171,3545058.630197299
4231,463995491.1558958
4244,67432.68949824354
4355,0.0
4480,224345.893506812
2,3, 1, 3, 0,11, 0.00,60.00,Saturday
11,266894891.1124284
47,116618011.36194092
71,63676411.361940938
346,52941599.9999999
993,115899659.99999997
1017,115899659.99999997
1497,366468251.12633916
1533,513194.69713651677
1557,513194.69713651677
2228,8127731.042779312
2366,2965790.200637845
4122,26102661.434381654
4134,16588453.988309086
4171,3545058.630197299
4231,362989266.22856476
4244,50151.18223577566
4355,0.0
4480,96676.09109073233
2,3, 1, 3, 0,12, 0.00,60.00,Saturday
11,268054245.0820937
47,116554901.55923768
71,63613301.55923769
346,52941599.9999999
993,115899659.99999997
1017,115899659.99999997
1497,304450743.6002439
1533,11952079.865633984
1557,11952079.865633984
2228,11365448.671869964
2366,3610649.425197198
4122,24134483.011370504
4134,16744855.035827585
4171,3545058.630197299
4231,288888014.3094128
4244,41813.901058674135
4355,0.0
4480,57937.938556912864
2,3, 1, 3, 0,13, 0.00,60.00,Saturday
11,261950418.07988168
47,113012511.38913447
71,60070911.38913448
346,52941599.9999999
993,114247259.99999997
1017,114247259.99999997
1497,264589324.3821249
1533,11952079.865633984
1557,11952079.865633984
2228,11751829.109713195
2366,3705937.779490088
4122,22853679.670819615
4134,16810457.686015645
4171,3545058.630197299
4231,248931306.73700083
4244,38229.863019860924
4355,0.0
4480,46908.047194541694
2,3, 1, 3, 0,14, 0.00,60.00,Saturday
11,261138613.0925321
47,113066815.79057148
71,60125215.7905715
346,52941599.9999999
993,114247259.99999997
1017,114247259.99999997
1497,198543233.90364195
1533,513194.69713651677
1557,513194.69713651677
2228,11946978.611198159
2366,3711787.7987035496
4122,21811925.68340705
4134,16938462.087496077
4171,3545058.630197299
4231,194318251.40780188
4244,30790.396618558447
4355,0.0
4480,34842.610736892595
2,3, 1, 3, 0,15, 0.00,60.00,Saturday
11,259035021.69526715
47,113206186.36003314
71,60264586.36003315
346,52941599.9999999
993,114247259.99999997
1017,114247259.99999997
1497,155359372.06675828
1533,427662.2476137639
1557,427662.2476137639
2228,9949858.125444947
2366,3076253.509917424
4122,21488990.088742094
4134,17260215.32410747
4171,3545058.630197299
4231,151855456.30922706
4244,24484.50713169839
4355,88894.91247983021
4480,29347.701435494637
2,3, 1, 3, 0,16, 0.00,60.00,Saturday
11,259233533.38451893
47,113491461.04647781
71,60549861.04647783
346,52941599.9999999
993,114247259.99999997
1017,114247259.99999997
1497,136422612.22256313
1533,427662.2476137639
1557,427662.2476137639
2228,9630351.144426236
2366,3022379.381500597
4122,21702552.953684994
4134,17580940.442973384
4171,3545058.630197299
4231,132972570.59344876
4244,21483.440003591517
4355,112085.3184448846
4480,28339.481481464325
2,3, 1, 3, 0,17, 0.00,60.00,Saturday
11,263656493.92455624
47,117991929.89790322
71,65050329.89790324
346,52941599.9999999
993,114247259.99999997
1017,114247259.99999997
1497,173701896.89990977
1533,29024875.168857416
1557,29024875.168857416
2228,9429933.469040174
2366,3019881.054295341
4122,21936148.66753897
4134,17746803.436216106
4171,3545058.630197299
4231,141657140.676757
4244,22671.551515413103
4355,0.0
4480,28550.338558445736
2,3, 1, 3, 0,18, 0.00,60.00,Saturday
11,256880615.42233069
47,111937382.99999996
71,64017782.99999998
346,47919599.99999992
993,113145659.99999997
1017,113145659.99999997
1497,242941939.36426098
1533,28597212.921243654
1557,28597212.921243654
2228,9528606.74752895
2366,2942918.762157342
4122,22198243.729920336
4134,17199985.57198998
4171,3545058.630197299
4231,211401807.68085999
4244,33585.22810389432
4355,0.0
4480,37136.71677755899
2,3, 1, 3, 0,19, 0.00,60.00,Saturday
11,284164469.50055608
47,128942549.99999987
71,38125349.999999988
346,90817199.99999984
993,125066699.99999988
1017,125066699.99999988
1497,263969159.6625899
1533,28597212.921243654
1557,28597212.921243654
2228,9293412.418242082
2366,2684782.553412892
4122,20761774.649304827
4134,16490138.123531126
4171,3545058.630197299
4231,232687164.18793343
4244,42431.07037799893
4355,0.0
4480,57601.36263134613
2,3, 1, 3, 0,20, 0.00,60.00,Saturday
11,306846281.4465701
47,142745273.9999998
71,23329673.999999994
346,119415599.9999998
993,138176819.9999998
1017,138176819.9999998
1497,190306587.03267525
1533,0.0
1557,0.0
2228,7407211.125258347
2366,2390000.8352412229
4122,18439083.10240197
4134,14596867.416050595
4171,3545058.630197299
4231,187916586.19743408
4244,34194.25985870298
4355,0.0
4480,43698.95905132669
2,3, 1, 3, 0,21, 0.00,60.00,Saturday
11,333851046.46547308
47,157044473.99999977
71,23329673.999999994
346,133714799.99999979
993,152476019.99999977
1017,152476019.99999977
1497,212276987.1185858
1533,0.0
1557,0.0
2228,5888782.135329353
2366,2338894.8322686979
4122,18349862.736007755
4134,14596867.416050595
4171,3545058.630197299
4231,209938092.2863171
4244,39830.927739273786
4355,0.0
4480,52076.66639686981
2,3, 1, 3, 0,22, 0.00,60.00,Saturday
11,274015281.5159989
47,127949597.9999998
71,8533997.999999999
346,119415599.9999998
993,122688539.9999998
1017,122688539.9999998
1497,273512347.1790812