Program Version,EnergyPlus, Version 9.0.1-bb7ca4f0da, YMD=2019.12.13 13:24
1,5,Environment Title[],Latitude[deg],Longitude[deg],Time Zone[],Elevation[m]
2,8,Day of Simulation[],Month[],Day of Month[],DST Indicator[1=yes 0=no],Hour[],StartMinute[],EndMinute[],DayType
3,5,Cumulative Day of Simulation[],Month[],Day of Month[],DST Indicator[1=yes 0=no],DayType  ! When Daily Meters Requested
4,2,Cumulative Days of Simulation[],Month[]  ! When Monthly Meters Requested
5,1,Cumulative Days of Simulation[] ! When Run Period Meters Requested
6,1,Calendar Year of Simulation[] ! When Annual Meters Requested
4210,1,Heating:Electricity [J] !Hourly
1533,1,InteriorEquipment:Gas [J] !Hourly
2366,1,WaterSystems:Gas [J] !Hourly
1497,1,Gas:Facility [J] !Hourly
71,1,ComplianceLtg:InteriorLights:Electricity [J] !Hourly
346,1,NonComplianceLtg:InteriorLights:Electricity [J] !Hourly
4379,1,Heating:Gas [J] !Hourly
11,1,Electricity:Facility [J] !Hourly
47,1,InteriorLights:Electricity [J] !Hourly
993,1,InteriorEquipment:Electricity [J] !Hourly
4114,1,Fans:Electricity [J] !Hourly
1017,1,Receptacle:InteriorEquipment:Electricity [J] !Hourly
4280,1,Cooling:Electricity [J] !Hourly
4417,1,Pumps:Electricity [J] !Hourly
2228,1,WaterSystems:Electricity [J] !Hourly
1557,1,Receptacle:InteriorEquipment:Gas [J] !Hourly
4126,1,General:Fans:Electricity [J] !Hourly
4162,1,ProcessMotors:Fans:Electricity [J] !Hourly
End of Data Dictionary
1,RIVERSIDE_722869_CZ2010,  33.95,-117.44,  -8.00, 253.00
2,1, 1, 1, 0, 1, 0.00,60.00,Holiday
11,66338914.70077891
47,24156278.99999996
71,4835078.999999999
346,19321199.999999968
993,18722069.99999997
1017,18722069.99999997
1497,1040191.9099648902
1533,0.0
1557,0.0
2228,802859.2553685755
2366,1040191.9099648902
4114,22657706.44541039
4126,8458341.339612136
4162,14199365.105798254
4210,0.0
4280,0.0
4379,0.0
4417,0.0
2,1, 1, 1, 0, 2, 0.00,60.00,Holiday
11,67149239.62680072
47,24156278.99999996
71,4835078.999999999
346,19321199.999999968
993,18722069.99999997
1017,18722069.99999997
1497,1040119.1039694381
1533,0.0
1557,0.0
2228,1605535.0264588774
2366,1040119.1039694381
4114,22657706.44541039
4126,8458341.339612136
4162,14199365.105798254
4210,7649.154931494995
4280,0.0
4379,0.0
4417,0.0
2,1, 1, 1, 0, 3, 0.00,60.00,Holiday
11,67155612.37973611
47,24156278.99999996
71,4835078.999999999
346,19321199.999999968
993,18722069.99999997
1017,18722069.99999997
1497,1185401.9501703433
1533,0.0
1557,0.0
2228,1605577.4442785364
2366,1185401.9501703433
4114,22657706.44541039
4126,8458341.339612136
4162,14199365.105798254
4210,13979.490047214997
4280,0.0
4379,0.0
4417,0.0
2,1, 1, 1, 0, 4, 0.00,60.00,Holiday
11,66351672.755785498
47,24156278.99999996
71,4835078.999999999
346,19321199.999999968
993,18722069.99999997
1017,18722069.99999997
1497,1149233.873968203
1533,0.0
1557,0.0
2228,796626.3050279688
2366,1149233.873968203
4114,22657706.44541039
4126,8458341.339612136
4162,14199365.105798254
4210,18991.005347159997
4280,0.0
4379,0.0
4417,0.0
2,1, 1, 1, 0, 5, 0.00,60.00,Holiday
11,67149319.04586479
47,24156278.99999996
71,4835078.999999999
346,19321199.999999968
993,18722069.99999997
1017,18722069.99999997
1497,1034919.9663201853
1533,0.0
1557,0.0
2228,1593217.5392546338
2366,1034919.9663201853
4114,22657706.44541039
4126,8458341.339612136
4162,14199365.105798254
4210,20046.061199779997
4280,0.0
4379,0.0
4417,0.0
2,1, 1, 1, 0, 6, 0.00,60.00,Holiday
11,174943903.87595166
47,52754678.99999992
71,4835078.999999999
346,47919599.99999992
993,47320469.999999929
1017,47320469.999999929
1497,1041625.0584813459
1533,0.0
1557,0.0
2228,796646.2148274253
2366,1041625.0584813459
4114,24689867.024383874
4126,10490501.918585619
4162,14199365.105798254
4210,49382241.636740367
4280,0.0
4379,0.0
4417,0.0
2,1, 1, 1, 0, 7, 0.00,60.00,Holiday
11,219005520.31678883
47,74200361.63885406
71,4831961.638854184
346,69368399.9999999
993,68769269.9999999
1017,68769269.9999999
1497,29875556.214709708
1533,28597212.921243654
1557,28597212.921243654
2228,1605739.6920077243
2366,1278343.2934660568
4114,24689867.024383874
4126,10490501.918585619
4162,14199365.105798254
4210,49740281.96154323
4280,0.0
4379,0.0
4417,0.0
2,1, 1, 1, 0, 8, 0.00,60.00,Holiday
11,216101451.9587794
47,74162797.93680457
71,4794397.936804697
346,69368399.9999999
993,68769269.9999999
1017,68769269.9999999
1497,29674104.96320963
1533,28597212.921243654
1557,28597212.921243654
2228,1643868.6994248855
2366,1076892.041965973
4114,24689867.024383874
4126,10490501.918585619
4162,14199365.105798254
4210,46835648.2981661
4280,0.0
4379,0.0
4417,0.0
2,1, 1, 1, 0, 9, 0.00,60.00,Holiday
11,237386372.74208606
47,77707492.69756657
71,8339092.697566688
346,69368399.9999999
993,72641339.99999988
1017,72641339.99999988
1497,398943545.23576059
1533,0.0
1557,0.0
2228,2506045.5410842129
2366,1331351.1387700644
4114,42045514.10498359
4126,27846148.99918534
4162,14199365.105798254
4210,41659457.81795155
4280,0.0
4379,397612194.09699049
4417,826522.5805002143
2,1, 1, 1, 0,10, 0.00,60.00,Holiday
11,206221656.90605767
47,77514940.28551267
71,8146540.285512794
346,69368399.9999999
993,72641339.99999988
1017,72641339.99999988
1497,300746923.4931004
1533,0.0
1557,0.0
2228,2547354.047989274
2366,1363070.5032187026
4114,30753524.862670855
4126,16554159.756872599
4162,14199365.105798254
4210,22426273.395403729
4280,0.0
4379,299383852.9898817
4417,338224.3144812118
2,1, 1, 1, 0,11, 0.00,60.00,Holiday
11,199807254.01112689
47,76227534.02828145
71,28307934.0282815
346,47919599.99999992
993,74424959.99999996
1017,74424959.99999996
1497,201886841.3292948
1533,0.0
1557,0.0
2228,5814348.603433711
2366,2007929.8535152283
4114,30718942.71125346
4126,16519577.605455207
4162,14199365.105798254
4210,12397607.09632245
4280,0.0
4379,199878911.47577954
4417,223861.57183584784
2,1, 1, 1, 0,12, 0.00,60.00,Holiday
11,196662838.81858508
47,75769506.14680353
71,27849906.146803567
346,47919599.99999992
993,74424959.99999996
1017,74424959.99999996
1497,153505108.3575554
1533,11438885.168497468
1557,11438885.168497468
2228,5927142.2175624
2366,2195865.9665206589
4114,30718942.711253466
4126,16519577.605455207
4162,14199365.105798254
4210,9618055.426713953
4280,0.0
4379,139870357.22253729
4417,204232.31625177887
2,1, 1, 1, 0,13, 0.00,60.00,Holiday
11,220878634.43514715
47,85833377.80457953
71,37913777.80457955
346,47919599.99999992
993,89913239.99999997
1017,89913239.99999997
1497,63014269.84767906
1533,11438885.168497468
1557,11438885.168497468
2228,6226146.938429376
2366,2277778.8630442505
4114,30718942.71125346
4126,16519577.605455209
4162,14199365.105798256
4210,7988687.254383233
4280,0.0
4379,49297605.81613735
4417,198239.72650160915
2,1, 1, 1, 0,14, 0.00,60.00,Holiday
11,221809457.08161969
47,86725974.43334049
71,38806374.433340538
346,47919599.99999992
993,89913239.99999997
1017,89913239.99999997
1497,22634698.96006254
1533,0.0
1557,0.0
2228,7264116.299610036
2366,2434814.923965629
4114,30718942.711253466
4126,16519577.605455209
4162,14199365.105798254
4210,6988687.780475851
4280,0.0
4379,20199884.036096913
4417,198495.85693990274
2,1, 1, 1, 0,15, 0.00,60.00,Holiday
11,223760377.58421437
47,88351690.45971428
71,40432090.4597143
346,47919599.99999992
993,89913239.99999997
1017,89913239.99999997
1497,15567636.895461776
1533,0.0
1557,0.0
2228,6101429.384285831
2366,2099704.534136635
4114,30718942.71125346
4126,16519577.605455207
4162,14199365.105798254
4210,6280539.205774604
4280,2195880.4685930756
4379,13467932.361325141
4417,198655.35459317137
2,1, 1, 1, 0,16, 0.00,60.00,Holiday
11,225554437.96585829
47,88103892.51938829
71,40184292.5193883
346,47919599.99999992
993,89913239.99999997
1017,89913239.99999997
1497,14112541.119903055
1533,0.0
1557,0.0
2228,7190088.962716748
2366,2385597.7564297595
4114,30718942.71125346
4126,16519577.605455207
4162,14199365.105798254
4210,6025258.701105744
4280,3404317.5421918237
4379,11726943.363473293
4417,198697.52920231454
2,1, 1, 1, 0,17, 0.00,60.00,Holiday
11,225865718.44633804
47,89571972.5064365
71,41652372.50643653
346,47919599.99999992
993,89913239.99999997
1017,89913239.99999997
1497,41876311.69026579
1533,28597212.921243654
1557,28597212.921243654
2228,6479758.365927535
2366,2321744.924743298
4114,30720378.867170305
4126,16521013.761372053
4162,14199365.105798254
4210,6170317.161467024
4280,2811336.3746551468
4379,10957353.84427884
4417,198715.1706815874
2,1, 1, 1, 0,18, 0.00,60.00,Holiday
11,198248164.00150366
47,78647111.99999994
71,30727511.99999999
346,47919599.99999992
993,74424959.99999996
1017,74424959.99999996
1497,72245933.56094995
1533,28597212.921243654
1557,28597212.921243654
2228,6933163.984147194
2366,2177959.1686225405
4114,30718942.71125346
4126,16519577.605455207
4162,14199365.105798254
4210,6645543.428361056
4280,680266.714134014
4379,41470761.47108376
4417,198175.16360803456
2,1, 1, 1, 0,19, 0.00,60.00,Holiday
11,242179214.1270733
47,106749035.99999982
71,15931835.999999995
346,90817199.99999984
993,101834279.99999984
1017,101834279.99999984
1497,129639790.61258057
1533,28597212.921243654
1557,28597212.921243654
2228,4669525.966623286
2366,1708763.682862842
4114,28686782.132279979
4126,14487417.026481722
4162,14199365.105798254
4210,39717.045759186265
4280,0.0
4379,99333814.00847408
4417,199872.98241106506
2,1, 1, 1, 0,20, 0.00,60.00,Holiday
11,270489985.27011606
47,124250678.9999998
71,4835078.999999999
346,119415599.9999998
993,118816469.99999982
1017,118816469.99999982
1497,2002172.7653591047
1533,0.0
1557,0.0
2228,4754974.912124662
2366,2002172.7653591047
4114,22657706.44541039
4126,8458341.339612136
4162,14199365.105798254
4210,10154.912581467495
4280,0.0
4379,0.0
4417,0.0
2,1, 1, 1, 0,21, 0.00,60.00,Holiday
11,298835568.26627448
47,138549878.9999998
71,4835078.999999999
346,133714799.99999979
993,133115669.99999979
1017,133115669.99999979
1497,1669028.9999221597
1533,0.0
1557,0.0
2228,4505718.721785727
2366,1669028.9999221597
4114,22657706.44541039
4126,8458341.339612136
4162,14199365.105798254
4210,6594.099078874995
4280,0.0
4379,0.0
4417,0.0
2,1, 1, 1, 0,22, 0.00,60.00,Holiday
11,268323245.48044244
47,124250678.9999998
71,4835078.999999999
346,119415599.9999998
993,118816469.99999982
1017,118816469.99999982
1497,1639042.0619927948
1533,0.0
1557,0.0
2228,2589949.5882114579
2366,1639042.0619927948
4114,22657706.44541039
4126,8458341.339612136
4162,14199365.105798254
4210,8440.446820959995
4280,0.0
4379,0.0
4417,0.0
2,1, 1, 1, 0,23, 0.00,60.00,Holiday
11,210994317.92317859
47,95652278.99999984
71,4835078.999999999
346,90817199.99999984
993,90218069.99999985
1017,90218069.99999985
1497,1101743.8200426973
1533,0.0
1557,0.0
2228,2466262.4777684446
2366,1101743.8200426973
4114,22657706.44541039
4126,8458341.339612136
4162,14199365.105798254
4210,0.0
4280,0.0
4379,0.0
4417,0.0
2,1, 1, 1, 0,24, 0.00,60.00,Holiday
11,123529426.13040996
47,52754678.99999992
71,4835078.999999999
346,47919599.99999992
993,47320469.999999929
1017,47320469.999999929
1497,1247791.367873952
1533,0.0
1557,0.0
2228,796570.6849996194
2366,1247791.367873952
4114,22657706.44541039
4126,8458341.339612136
4162,14199365.105798254
4210,0.0
4280,0.0
4379,0.0
4417,0.0
2,2, 1, 2, 0, 1, 0.00,60.00,Friday
11,66320609.968369867
47,24156278.99999996
71,4835078.999999999
346,19321199.999999968
993,18722069.99999997
1017,18722069.99999997
1497,1027801.9084932515
1533,0.0
1557,0.0
2228,784554.5229595252
2366,1027801.9084932515
4114,22657706.44541039
4126,8458341.339612136
4162,14199365.105798254
4210,0.0
4280,0.0
4379,0.0
4417,0.0
2,2, 1, 2, 0, 2, 0.00,60.00,Friday
11,66331881.233446549
47,24156278.99999996
71,4835078.999999999
346,19321199.999999968
993,18722069.99999997
1017,18722069.99999997
1497,1032239.6442887323
1533,0.0
1557,0.0
2228,790550.5087730993
2366,1032239.6442887323
4114,22657706.44541039
4126,8458341.339612136
4162,14199365.105798254
4210,5275.279263099997
4280,0.0
4379,0.0
4417,0.0
2,2, 1, 2, 0, 3, 0.00,60.00,Friday
11,67128898.51044332
47,24156278.99999996
71,4835078.999999999
346,19321199.999999968
993,18722069.99999997
1017,18722069.99999997
1497,1032221.0237207664
1533,0.0
1557,0.0
2228,1580973.686690982
2366,1032221.0237207664
4114,22657706.44541039
4126,8458341.339612136
4162,14199365.105798254
4210,11869.378341974996
4280,0.0
4379,0.0
4417,0.0
2,2, 1, 2, 0, 4, 0.00,60.00,Friday
11,66335044.8763163
47,24156278.99999996
71,4835078.999999999
346,19321199.999999968
993,18722069.99999997
1017,18722069.99999997
1497,1027510.9456962043
1533,0.0
1557,0.0
2228,784482.4129324202
2366,1027510.9456962043
4114,22657706.44541039
4126,8458341.339612136
4162,14199365.105798254
4210,14507.017973524995
4280,0.0
4379,0.0
4417,0.0
2,2, 1, 2, 0, 5, 0.00,60.00,Friday
11,66337693.24854126
47,24156278.99999996
71,4835078.999999999
346,19321199.999999968
993,18722069.99999997
1017,18722069.99999997
1497,1027483.6320329545
1533,0.0
1557,0.0
2228,784493.1455258209
2366,1027483.6320329545
4114,22657706.44541039
4126,8458341.339612136
4162,14199365.105798254
4210,17144.657605074997
4280,0.0
4379,0.0
4417,0.0
2,2, 1, 2, 0, 6, 0.00,60.00,Friday
11,142912291.03391413
47,53890838.99999992
71,5971238.999999999
346,47919599.99999992
993,47871269.999999929
1017,47871269.999999929
1497,1034009.1971311524
1533,0.0
1557,0.0
2228,784556.8680490614
2366,1034009.1971311524
4114,24689867.024383874
4126,10490501.918585619
4162,14199365.105798254
4210,15675758.141481182
4280,0.0
4379,0.0
4417,0.0
2,2, 1, 2, 0, 7, 0.00,60.00,Friday
11,204192024.2544826
47,80361638.99999988
71,5971238.999999999
346,74390399.99999988
993,69320069.9999999
1017,69320069.9999999
1497,358450001.336005
1533,28597212.921243654
1557,28597212.921243654
2228,784551.1601108604
2366,1031946.7887889525
4114,37645905.940373267
4126,23446540.83457501
4162,14199365.105798254
4210,15512583.361102149
4280,0.0
4379,328820841.6259724
4417,567274.7928964919
2,2, 1, 2, 0, 8, 0.00,60.00,Friday
11,225594720.95763249
47,95906994.81884957
71,21516594.81884968
346,74390399.99999988
993,83139479.99999988
1017,83139479.99999988
1497,288165240.72876897
1533,28882321.086319496
1557,28882321.086319496
2228,2569315.589256646
2366,1673523.6678898053
4114,30730890.557202765
4126,16531525.451404507
4162,14199365.105798254
4210,12974705.897799902
4280,0.0
4379,257609395.9745596
4417,273334.0945236721
2,2, 1, 2, 0, 9, 0.00,60.00,Friday
11,285971266.0740541
47,125404899.77132705
71,51014499.77132717
346,74390399.99999988
993,112981499.99999987
1017,112981499.99999987
1497,190912804.23360027
1533,285108.16507584266
1557,285108.16507584266
2228,4589742.810312858
2366,2412534.4341691478
4114,30718942.71125346
4126,16519577.605455207
4162,14199365.105798254
4210,12058621.434362222
4280,0.0
4379,188215161.63435529
4417,217559.34679923126
2,2, 1, 2, 0,10, 0.00,60.00,Friday
11,343300098.3723638
47,150948053.51390133
71,76557653.51390139
346,74390399.99999988
993,143958059.99999995
1017,143958059.99999995
1497,129586852.57308635
1533,285108.16507584266
1557,285108.16507584266
2228,5989930.958133305
2366,2555734.602090637
4114,30764167.097205447
4126,16564801.99140719
4162,14199365.105798254
4210,11436068.025855529
4280,0.0
4379,126746009.80591986
4417,203818.77726889985
2,2, 1, 2, 0,11, 0.00,60.00,Friday
11,300807635.18152138
47,129413309.0786947
71,76471709.07869473
346,52941599.9999999
993,122509259.99999996
1017,122509259.99999996
1497,95059209.31663746
1533,513194.69713651677
1557,513194.69713651677
2228,7656049.078932222
2366,3057846.9013399349
4114,30819701.621448786
4126,16620336.515650534
4162,14199365.105798254
4210,10209427.94969356
4280,0.0
4379,91488167.718161
4417,199887.45275275544
2,2, 1, 2, 0,12, 0.00,60.00,Friday
11,303242200.65367689
47,129236919.34988666
71,76295319.34988667
346,52941599.9999999
993,122509259.99999996
1017,122509259.99999996
1497,91384799.68752009
1533,11952079.865633984
1557,11952079.865633984
2228,10549925.90538431
2366,3913584.0967869919
4114,31064353.591118177
4126,16864988.48531992
4162,14199365.105798254
4210,9683022.39121556
4280,0.0
4379,75519135.72509912
4417,198719.41607286648
2,2, 1, 2, 0,13, 0.00,60.00,Friday
11,305214417.7674924
47,129173010.08465712
71,76231410.08465715
346,52941599.9999999
993,122509259.99999996
1017,122509259.99999996
1497,93818071.45064071
1533,11952079.865633984
1557,11952079.865633984
2228,12356241.863885243
2366,4392627.22826802
4114,31137346.851231275
4126,16937981.745433019
4162,14199365.105798254
4210,9839793.655900943
4280,0.0
4379,77473364.35673872
4417,198765.3118184916
2,2, 1, 2, 0,14, 0.00,60.00,Friday
11,305550946.01332738
47,129402352.7662915
71,76460752.76629152
346,52941599.9999999
993,122509259.99999996
1017,122509259.99999996
1497,104857725.49689929
1533,513194.69713651677
1557,513194.69713651677
2228,11444369.413640414
2366,4025439.0065607938
4114,31228768.37622991
4126,17029403.270431654
4162,14199365.105798254
4210,10765957.482866388
4280,0.0
4379,100319091.793202
4417,200237.97429982353
2,2, 1, 2, 0,15, 0.00,60.00,Friday
11,304653498.0000735
47,129567597.66444919
71,76625997.66444922
346,52941599.9999999
993,122509259.99999996
1017,122509259.99999996
1497,108460173.27124867
1533,427662.2476137639
1557,427662.2476137639
2228,9673535.594773137
2366,3427303.6484557718
4114,31408311.7751383
4126,17208946.669340046
4162,14199365.105798254
4210,11293990.481175952
4280,0.0
4379,104605207.37517914
4417,200802.4845376839
2,2, 1, 2, 0,16, 0.00,60.00,Friday
11,303459410.54074206
47,129461872.30993867
71,76520272.3099387
346,52941599.9999999
993,122509259.99999996
1017,122509259.99999996
1497,96779598.20033558
1533,427662.2476137639
1557,427662.2476137639
2228,7993893.210357093
2366,3157574.6180560959
4114,32003524.860253958
4126,17804159.7544557
4162,14199365.105798254
4210,11291033.912069856
4280,0.0
4379,93194361.33466573
4417,199826.24812319462
2,2, 1, 2, 0,17, 0.00,60.00,Friday
11,305352518.8828745
47,130497421.26442059
71,77555821.26442062
346,52941599.9999999
993,122509259.99999996
1017,122509259.99999996
1497,118083720.03142415
1533,29024875.168857416
1557,29024875.168857416
2228,9244111.295907354
2366,3211630.1832414807
4114,31920544.790400417
4126,17721179.684602165
4162,14199365.105798254
4210,10981848.53009025
4280,0.0
4379,85847214.67932526
4417,199333.0020566607
2,2, 1, 2, 0,18, 0.00,60.00,Friday
11,292885033.81596288
47,123776342.99999996
71,70834742.99999997
346,52941599.9999999
993,118102859.99999997
1017,118102859.99999997
1497,115340487.73690197
1533,29024875.168857416
1557,29024875.168857416
2228,8738575.89065111
2366,3214004.5537012948
4114,31422412.600662725
4126,17223047.49486447
4162,14199365.105798254
4210,10645666.453268016
4280,0.0
4379,83101608.01434325
4417,199175.87138172452
2,2, 1, 2, 0,19, 0.00,60.00,Friday
11,329339145.17992797
47,143344268.99999986
71,47505068.99999999
346,95839199.99999984
993,135564839.99999989
1017,135564839.99999989
1497,139181475.21650774
1533,28597212.921243654
1557,28597212.921243654
2228,8303646.238153582
2366,2725161.7540238348
4114,30907094.904288085
4126,16707729.798489828
4162,14199365.105798254
4210,11018242.467401673
4280,0.0
4379,107859100.54124028
4417,201052.57008544176
2,2, 1, 2, 0,20, 0.00,60.00,Friday
11,384471586.312853
47,171942668.99999974
71,47505068.99999999
346,124437599.9999998
993,164163239.99999974
1017,164163239.99999974
1497,114070613.36451897
1533,0.0
1557,0.0
2228,6103462.699010369
2366,2443146.1948071036
4114,30765716.802413905
4126,16566351.696615648
4162,14199365.105798254
4210,11294894.369488137
4280,0.0
4379,111627467.16971189
4417,201603.441941588
2,2, 1, 2, 0,21, 0.00,60.00,Friday
11,398146967.0145742
47,180270629.9999997
71,41533829.999999988
346,138736799.9999998
993,169616699.99999974
1017,169616699.99999974
1497,117365608.43235372
1533,0.0
1557,0.0
2228,6043740.875366799
2366,2440995.639818117
4114,30718942.71125346
4126,16519577.605455207
4162,14199365.105798254
4210,11294957.373489805
4280,0.0
4379,114924612.7925356
4417,201996.054465157
2,2, 1, 2, 0,22, 0.00,60.00,Friday
11,315893575.9698823
47,143777915.9999998
71,19340315.999999998
346,124437599.9999998
993,132085079.9999998
1017,132085079.9999998
1497,1700882.8566270918
1533,0.0
1557,0.0
2228,4586629.170200296
2366,1700882.8566270918
4114,24689867.024383874
4126,10490501.918585619
4162,14199365.105798254
4210,10754083.775298994
4280,0.0
4379,0.0
4417,0.0
2,2, 1, 2, 0,23, 0.00,60.00,Friday
11,225201546.6346003
47,96788438.99999984
71,5971238.999999999
346,90817199.99999984
993,90768869.99999985
1017,90768869.99999985
1497,1409964.4632858257
1533,0.0
1557,0.0
2228,2526746.6209322439
2366,1409964.4632858257
4114,24689867.024383874
4126,10490501.918585619
4162,14199365.105798254
4210,10427623.98928448
4280,0.0
4379,0.0
4417,0.0
2,2, 1, 2, 0,24, 0.00,60.00,Friday
11,136812652.448999
47,52754678.99999992
71,4835078.999999999
346,47919599.99999992
993,47320469.999999929
1017,47320469.999999929
1497,1240709.076715171
1533,0.0
1557,0.0
2228,1617902.3236254364
2366,1240709.076715171
4114,24689867.024383874
4126,10490501.918585619
4162,14199365.105798254
4210,10429734.10098972
4280,0.0
4379,0.0
4417,0.0
2,3, 1, 3, 0, 1, 0.00,60.00,Saturday
11,68029239.94686692
47,24156278.99999996
71,4835078.999999999
346,19321199.999999968
993,18722069.99999997
1017,18722069.99999997
1497,1327650.9554048379
1533,0.0
1557,0.0
2228,2485799.1104882226
2366,1327650.9554048379
4114,22657706.44541039
4126,8458341.339612136
4162,14199365.105798254
4210,7385.390968339995
4280,0.0
4379,0.0
4417,0.0
2,3, 1, 3, 0, 2, 0.00,60.00,Saturday
11,67191166.81640384
47,24156278.99999996
71,4835078.999999999
346,19321199.999999968
993,18722069.99999997
1017,18722069.99999997
1497,1321406.2598545245
1533,0.0
1557,0.0
2228,1644033.2845409595
2366,1321406.2598545245
4114,22657706.44541039
4126,8458341.339612136
4162,14199365.105798254
4210,11078.086452509995
4280,0.0
4379,0.0
4417,0.0
2,3, 1, 3, 0, 3, 0.00,60.00,Saturday
11,67167325.18876082
47,24156278.99999996
71,4835078.999999999
346,19321199.999999968
993,18722069.99999997
1017,18722069.99999997
1497,1046835.0275053153
1533,0.0
1557,0.0
2228,1618345.3091558659
2366,1046835.0275053153
4114,22657706.44541039
4126,8458341.339612136
4162,14199365.105798254
4210,12924.434194594996
4280,0.0
4379,0.0
4417,0.0
2,3, 1, 3, 0, 4, 0.00,60.00,Saturday
11,66346289.93278436
47,24156278.99999996
71,4835078.999999999
346,19321199.999999968
993,18722069.99999997
1017,18722069.99999997
1497,1037473.6664703197
1533,0.0
1557,0.0
2228,796518.7612899406
2366,1037473.6664703197
4114,22657706.44541039
4126,8458341.339612136
4162,14199365.105798254
4210,13715.726084059996
4280,0.0
4379,0.0
4417,0.0
2,3, 1, 3, 0, 5, 0.00,60.00,Saturday
11,67145133.04743767
47,24156278.99999996
71,4835078.999999999
346,19321199.999999968
993,18722069.99999997
1017,18722069.99999997
1497,1296702.754353156
1533,0.0
1557,0.0
2228,1593251.7642380028
2366,1296702.754353156
4114,22657706.44541039
4126,8458341.339612136
4162,14199365.105798254
4210,15825.837789299996
4280,0.0
4379,0.0
4417,0.0
2,3, 1, 3, 0, 6, 0.00,60.00,Saturday
11,145116626.4816116
47,52754678.99999992
71,4835078.999999999
346,47919599.99999992
993,47320469.999999929
1017,47320469.999999929
1497,1043822.5941311107
1533,0.0
1557,0.0
2228,796630.9692746333
2366,1043822.5941311107
4114,24689867.024383874
4126,10490501.918585619
4162,14199365.105798254
4210,19554979.487953105
4280,0.0
4379,0.0
4417,0.0
2,3, 1, 3, 0, 7, 0.00,60.00,Saturday
11,205718168.78647087
47,80361638.99999988
71,5971238.999999999
346,74390399.99999988
993,69320069.9999999
1017,69320069.9999999
1497,351628783.3498473
1533,28597212.921243654
1557,28597212.921243654
2228,1605507.0741722037
2366,1240622.949492594
4114,34413338.571410808
4126,20213973.46561255
4162,14199365.105798254
4210,19520375.09837769
4280,0.0
4379,321790947.47911116
4417,497239.04251032418
2,3, 1, 3, 0, 8, 0.00,60.00,Saturday
11,210615537.9699635
47,83628968.2627846
71,9238568.262784714
346,74390399.99999988
993,73192139.99999988
1017,73192139.99999988
1497,303249013.79718217
1533,28597212.921243654
1557,28597212.921243654
2228,3573696.6519461318
2366,1759228.6332249004
4114,30718942.71125346
4126,16519577.605455207
4162,14199365.105798254
4210,19218688.058709809
4280,0.0
4379,272892572.2427136
4417,283102.28526955706
2,3, 1, 3, 0, 9, 0.00,60.00,Saturday
11,247298542.23820318
47,101400380.25548245
71,27009980.25548259
346,74390399.99999988
993,90883619.99999987
1017,90883619.99999987
1497,229106117.61169673
1533,285108.16507584266
1557,285108.16507584266
2228,4629194.909662388
2366,2026359.0040244305
4114,30718942.711253466
4126,16519577.605455209
4162,14199365.105798256
4210,19428599.51653821
4280,0.0
4379,226794650.44259645
4417,237804.8452667478
2,3, 1, 3, 0,10, 0.00,60.00,Saturday
11,281193203.0121271
47,118002664.46103154
71,43612264.46103167
346,74390399.99999988
993,114116039.99999988
1017,114116039.99999988
1497,143284450.84215785
1533,285108.16507584266
1557,285108.16507584266
2228,5485877.08791676
2366,2087583.0950148374
4114,30763097.507479185
4126,16563732.401680928
4162,14199365.105798254
4210,12618296.742182866
4280,0.0
4379,140911759.58206717
4417,207227.21351720839
2,3, 1, 3, 0,11, 0.00,60.00,Saturday
11,281611880.1823059
47,116456560.32970676
71,63514960.32970677
346,52941599.9999999
993,115899659.99999997
1017,115899659.99999997
1497,92581280.92346324
1533,513194.69713651677
1557,513194.69713651677
2228,7996017.70707473
2366,2903793.347072783
4114,30877606.26657632
4126,16678241.16077806
4162,14199365.105798256
4210,10182263.07823891
4280,0.0
4379,89164292.87925394
4417,199772.8007097079
2,3, 1, 3, 0,12, 0.00,60.00,Saturday
11,283727162.13440266
47,116616267.43367976
71,63674667.43367979
346,52941599.9999999
993,115899659.99999997
1017,115899659.99999997
1497,75646830.67388311
1533,11952079.865633984
1557,11952079.865633984
2228,10149994.155873526
2366,3154919.0388384985
4114,31155114.604303466
4126,16955749.498505214
4162,14199365.105798256
4210,9264713.118897604
4280,443090.9558015107
4379,60539831.76941063
4417,198321.86584715139
2,3, 1, 3, 0,13, 0.00,60.00,Saturday
11,281815240.11265388
47,113525509.89224088
71,60583909.892240907
346,52941599.9999999
993,114247259.99999997
1017,114247259.99999997
1497,65150469.47083298
1533,11952079.865633984
1557,11952079.865633984
2228,10815003.575932993
2366,3589113.0159480816
4114,31281937.601157898
4126,17082572.49535964
4162,14199365.105798256
4210,8961133.901400872
4280,2786235.8511176125
4379,49609276.58925092
4417,198159.29080403652
2,3, 1, 3, 0,14, 0.00,60.00,Saturday
11,286497761.42621198
47,113445807.04566916
71,60504207.045669179
346,52941599.9999999
993,114247259.99999997
1017,114247259.99999997
1497,26663115.766227344
1533,513194.69713651677
1557,513194.69713651677
2228,11612951.683984423
2366,3553200.292515965
4114,32015223.962887493
4126,17815858.857089238
4162,14199365.105798256
4210,8508431.855051887
4280,6469625.948918343
4379,22596720.776574866
4417,198460.9297010349
2,3, 1, 3, 0,15, 0.00,60.00,Saturday
11,285390935.59355077
47,113195507.39155972
71,60253907.39155975
346,52941599.9999999
993,114247259.99999997
1017,114247259.99999997
1497,8291885.843518709
1533,427662.2476137639
1557,427662.2476137639
2228,8985959.756518402
2366,2973713.334939314
4114,32613453.70066821
4126,18414088.59486995
4162,14199365.105798256
4210,8200141.061126178
4280,7949661.353651709
4379,4890510.260965631
4417,198952.33002686705
2,3, 1, 3, 0,16, 0.00,60.00,Saturday
11,284668821.18296518
47,113451801.67959711
71,60510201.67959714
346,52941599.9999999
993,114247259.99999997
1017,114247259.99999997
1497,5683693.857880905
1533,427662.2476137639
1557,427662.2476137639
2228,9446243.78059613
2366,2760308.9259201118
4114,32919201.427597204
4126,18719836.321798948
4162,14199365.105798254
4210,7746344.876573224
4280,6658926.60700124
4379,2495722.6843470295
4417,199042.81160046214
2,3, 1, 3, 0,17, 0.00,60.00,Saturday
11,285968059.62367418
47,117843076.16066411
71,64901476.16066414
346,52941599.9999999
993,114247259.99999997
1017,114247259.99999997
1497,34357864.38547096
1533,29024875.168857416
1557,29024875.168857416
2228,9202202.810510919
2366,2881921.762131892
4114,33088685.370990874
4126,18889320.265192618
4162,14199365.105798254
4210,7676218.436582343
4280,3711572.3648389189
4379,2451067.454481652
4417,199044.48008720074
2,3, 1, 3, 0,18, 0.00,60.00,Saturday
11,274688929.322047
47,111937382.99999996
71,64017782.99999998
346,47919599.99999992
993,113145659.99999997
1017,113145659.99999997
1497,40802210.567773099
1533,28597212.921243654
1557,28597212.921243654
2228,8212187.243998894
2366,2882853.6445995846
4114,32340225.898066198
4126,18140860.79226794
4162,14199365.105798254
4210,8375893.076093874
4280,478785.3149333762
4379,9322144.001929859
4417,198794.78895480885
2,3, 1, 3, 0,19, 0.00,60.00,Saturday
11,303142650.259418
47,128942549.99999987
71,38125349.999999988
346,90817199.99999984
993,125066699.99999988
1017,125066699.99999988
1497,99093107.03778446
1533,28597212.921243654
1557,28597212.921243654
2228,8794686.613618594
2366,2533126.712047888
4114,30724027.20648591
4126,16524662.100687655
4162,14199365.105798254
4210,9403571.21749102
4280,12641.883607081494
4379,67962767.4044929
4417,198473.33821576558
2,3, 1, 3, 0,20, 0.00,60.00,Saturday
11,316280491.1727631
47,142745273.9999998
71,23329673.999999994
346,119415599.9999998
993,138176819.9999998
1017,138176819.9999998
1497,108164126.47562169
1533,0.0
1557,0.0
2228,6440454.009169182
2366,2422948.712593199
4114,28686782.132279979
4126,14487417.026481722
4162,14199365.105798254
4210,30430.99984801309
4280,0.0
4379,105741177.7630285
4417,200730.0314663068
2,3, 1, 3, 0,21, 0.00,60.00,Saturday
11,344259825.4092616
47,157044473.99999977
71,23329673.999999994
346,133714799.99999979
993,152476019.99999977
1017,152476019.99999977
1497,130709809.80746332
1533,0.0
1557,0.0
2228,5814730.500848036
2366,2042360.2424755982
4114,28686782.132279979
4126,14487417.026481722
4162,14199365.105798254
4210,35184.29700489712
4280,0.0
4379,128667449.56498772
4417,202634.4791290367
2,3, 1, 3, 0,22, 0.00,60.00,Saturday
11,283586543.1641843
47,127949597.9999998
71,8533997.999999999
346,119415599.9999998
993,122688539.9999998
1017,122688539.9999998