Program Version,EnergyPlus, Version 9.0.1-bb7ca4f0da, YMD=2019.12.17 17:42
1,5,Environment Title[],Latitude[deg],Longitude[deg],Time Zone[],Elevation[m]
2,8,Day of Simulation[],Month[],Day of Month[],DST Indicator[1=yes 0=no],Hour[],StartMinute[],EndMinute[],DayType
3,5,Cumulative Day of Simulation[],Month[],Day of Month[],DST Indicator[1=yes 0=no],DayType  ! When Daily Meters Requested
4,2,Cumulative Days of Simulation[],Month[]  ! When Monthly Meters Requested
5,1,Cumulative Days of Simulation[] ! When Run Period Meters Requested
6,1,Calendar Year of Simulation[] ! When Annual Meters Requested
4114,1,Fans:Electricity [J] !Hourly
71,1,ComplianceLtg:InteriorLights:Electricity [J] !Hourly
11,1,Electricity:Facility [J] !Hourly
47,1,InteriorLights:Electricity [J] !Hourly
4210,1,Heating:Electricity [J] !Hourly
993,1,InteriorEquipment:Electricity [J] !Hourly
1497,1,Gas:Facility [J] !Hourly
4473,1,Pumps:Electricity [J] !Hourly
4348,1,Cooling:Electricity [J] !Hourly
2228,1,WaterSystems:Electricity [J] !Hourly
1533,1,InteriorEquipment:Gas [J] !Hourly
4236,1,Heating:Gas [J] !Hourly
2366,1,WaterSystems:Gas [J] !Hourly
1017,1,Receptacle:InteriorEquipment:Electricity [J] !Hourly
1557,1,Receptacle:InteriorEquipment:Gas [J] !Hourly
346,1,NonComplianceLtg:InteriorLights:Electricity [J] !Hourly
4126,1,General:Fans:Electricity [J] !Hourly
4162,1,ProcessMotors:Fans:Electricity [J] !Hourly
End of Data Dictionary
1,RIVERSIDE_722869_CZ2010,  33.95,-117.44,  -8.00, 253.00
2,1, 1, 1, 0, 1, 0.00,60.00,Holiday
11,66338914.70077891
47,24156278.99999996
71,4835078.999999999
346,19321199.999999968
993,18722069.99999997
1017,18722069.99999997
1497,1040191.9099648902
1533,0.0
1557,0.0
2228,802859.2553685755
2366,1040191.9099648902
4114,22657706.44541039
4126,8458341.339612136
4162,14199365.105798254
4210,0.0
4236,0.0
4348,0.0
4473,0.0
2,1, 1, 1, 0, 2, 0.00,60.00,Holiday
11,67141590.47186922
47,24156278.99999996
71,4835078.999999999
346,19321199.999999968
993,18722069.99999997
1017,18722069.99999997
1497,1040119.1039694381
1533,0.0
1557,0.0
2228,1605535.0264588774
2366,1040119.1039694381
4114,22657706.44541039
4126,8458341.339612136
4162,14199365.105798254
4210,0.0
4236,0.0
4348,0.0
4473,0.0
2,1, 1, 1, 0, 3, 0.00,60.00,Holiday
11,67141777.02226249
47,24156278.99999996
71,4835078.999999999
346,19321199.999999968
993,18722069.99999997
1017,18722069.99999997
1497,1187545.0173305595
1533,0.0
1557,0.0
2228,1605721.5768521387
2366,1187545.0173305595
4114,22657706.44541039
4126,8458341.339612136
4162,14199365.105798254
4210,0.0
4236,0.0
4348,0.0
4473,0.0
2,1, 1, 1, 0, 4, 0.00,60.00,Holiday
11,66390234.70897352
47,24156278.99999996
71,4835078.999999999
346,19321199.999999968
993,18722069.99999997
1017,18722069.99999997
1497,2448174.5311614067
1533,0.0
1557,0.0
2228,796626.3058230369
2366,1147059.7383007457
4114,22715259.40315054
4126,8458341.339612136
4162,14199365.105798254
4210,0.0
4236,1301114.7928606608
4348,0.0
4473,0.0
2,1, 1, 1, 0, 5, 0.00,60.00,Holiday
11,67556509.28696995
47,24156278.99999996
71,4835078.999999999
346,19321199.999999968
993,18722069.99999997
1017,18722069.99999997
1497,10693560.079915666
1533,0.0
1557,0.0
2228,1593217.5408444517
2366,1034920.8481386708
4114,23084942.74612555
4126,8458341.339612136
4162,14199365.105798254
4210,0.0
4236,9658639.231776994
4348,0.0
4473,0.0
2,1, 1, 1, 0, 6, 0.00,60.00,Holiday
11,176107175.31268997
47,52754678.99999992
71,4835078.999999999
346,47919599.99999992
993,47320469.999999929
1017,47320469.999999929
1497,19327176.315567759
1533,0.0
1557,0.0
2228,796646.2401767693
2366,1041496.1866217057
4114,25498708.440895894
4126,10490501.918585619
4162,14199365.105798254
4210,49736671.631617348
4236,18285680.12894605
4348,0.0
4473,0.0
2,1, 1, 1, 0, 7, 0.00,60.00,Holiday
11,243623816.9581331
47,74200284.150284
71,4831884.150284121
346,69368399.9999999
993,68769269.9999999
1017,68769269.9999999
1497,522198701.6209274
1533,28597212.921243654
1557,28597212.921243654
2228,1605739.7951709796
2366,1282783.6429444415
4114,49293217.14409142
4126,13338230.186486358
4162,14199365.105798252
4210,49717157.37206012
4236,492318705.05673936
4348,0.0
4473,38148.49652667506
2,1, 1, 1, 0, 8, 0.00,60.00,Holiday
11,232326977.07165007
47,74161406.22225259
71,4793006.222252714
346,69368399.9999999
993,68769269.9999999
1017,68769269.9999999
1497,310716769.2320734
1533,28597212.921243654
1557,28597212.921243654
2228,1643868.4689993647
2366,1072481.9223701577
4114,40840175.98101011
4126,14287472.942453269
4162,14199365.105798254
4210,46812760.63811143
4236,281047074.38845959
4348,0.0
4473,99495.76127666803
2,1, 1, 1, 0, 9, 0.00,60.00,Holiday
11,245695395.46532137
47,77702684.5819369
71,8334284.581937031
346,69368399.9999999
993,72641339.99999988
1017,72641339.99999988
1497,669156702.1289761
1533,0.0
1557,0.0
2228,2506077.5082831529
2366,1331310.2727832539
4114,50042900.60120083
4126,26401131.26857823
4162,14199365.105798254
4210,41603513.88407917
4236,667825391.8561928
4348,0.0
4473,1198878.889821426
2,1, 1, 1, 0,10, 0.00,60.00,Holiday
11,212943794.68625454
47,77505659.1905349
71,8137259.190535033
346,69368399.9999999
993,72641339.99999988
1017,72641339.99999988
1497,485330929.25114157
1533,0.0
1557,0.0
2228,2547354.0667828905
2366,1366074.4171883253
4114,37509509.16467175
4126,16584438.769836838
4162,14199365.105798254
4210,22376758.295921338
4236,483964854.8339532
4348,0.0
4473,363173.9683437943
2,1, 1, 1, 0,11, 0.00,60.00,Holiday
11,204280300.15561239
47,76188313.19464
71,28268713.194640049
346,47919599.99999992
993,74424959.99999996
1017,74424959.99999996
1497,324139517.7587274
1533,0.0
1557,0.0
2228,5814348.603270989
2366,2004692.8265924645
4114,35266775.47814533
4126,16519577.605455207
4162,14199365.105798254
4210,12358566.307874542
4236,322134824.9321349
4348,0.0
4473,227336.57168155444
2,1, 1, 1, 0,12, 0.00,60.00,Holiday
11,197734088.47153989
47,75738797.72426495
71,27819197.724264996
346,47919599.99999992
993,74424959.99999996
1017,74424959.99999996
1497,187340439.6253294
1533,11438885.168497468
1557,11438885.168497468
2228,5926313.723276158
2366,2199045.434015942
4114,31854071.32108719
4126,16519577.605455207
4162,14199365.105798254
4210,9584681.551087225
4236,173702509.022816
4348,0.0
4473,205264.1518244638
2,1, 1, 1, 0,13, 0.00,60.00,Holiday
11,220899371.8405613
47,85791188.24721478
71,37871588.24721481
346,47919599.99999992
993,89913239.99999997
1017,89913239.99999997
1497,69421266.37464698
1533,11438885.168497468
1557,11438885.168497468
2228,6225008.583229153
2366,2274140.8773413135
4114,30806726.077450046
4126,16519577.605455207
4162,14199365.105798254
4210,7964937.307662496
4236,55708240.32880819
4348,0.0
4473,198271.62500491343
2,1, 1, 1, 0,14, 0.00,60.00,Holiday
11,221731424.98728193
47,86666642.94539365
71,38747042.9453937
346,47919599.99999992
993,89913239.99999997
1017,89913239.99999997
1497,26577954.6789065
1533,0.0
1557,0.0
2228,7263783.991243319
2366,2434677.8085902638
4114,30718942.71125346
4126,16519577.605455207
4162,14199365.105798254
4210,6970406.625249066
4236,24143276.870316239
4348,0.0
4473,198408.71414252564
2,1, 1, 1, 0,15, 0.00,60.00,Holiday
11,223711647.7737038
47,88319131.94630854
71,40399531.94630856
346,47919599.99999992
993,89913239.99999997
1017,89913239.99999997
1497,18891632.994712019
1533,0.0
1557,0.0
2228,6101552.264941225
2366,2100580.0316490398
4114,30718942.71125346
4126,16519577.605455207
4162,14199365.105798254
4210,6264176.255326613
4236,16791052.96306298
4348,2196040.734807553
4473,198563.86106650966
2,1, 1, 1, 0,16, 0.00,60.00,Holiday
11,225468714.5099736
47,88034642.05560117
71,40115042.05560118
346,47919599.99999992
993,89913239.99999997
1017,89913239.99999997
1497,16043753.131505486
1533,0.0
1557,0.0
2228,7190089.138094874
2366,2384750.333237031
4114,30718942.71125346
4126,16519577.605455207
4162,14199365.105798254
4210,6008839.906585714
4236,13659002.798268456
4348,3404317.5421921059
4473,198643.15624635583
2,1, 1, 1, 0,17, 0.00,60.00,Holiday
11,225838683.0473328
47,89564834.55211813
71,41645234.552118148
346,47919599.99999992
993,89913239.99999997
1017,89913239.99999997
1497,42910136.537308339
1533,28597212.921243654
1557,28597212.921243654
2228,6477004.029358594
2366,2322556.936406089
4114,30718942.71125346
4126,16519577.605455207
4162,14199365.105798254
4210,6155117.835355826
4236,11990366.679658592
4348,2810858.358516646
4473,198685.56073020554
2,1, 1, 1, 0,18, 0.00,60.00,Holiday
11,198233687.71262539
47,78647111.99999994
71,30727511.99999999
346,47919599.99999992
993,74424959.99999996
1017,74424959.99999996
1497,77598267.38995177
1533,28597212.921243654
1557,28597212.921243654
2228,6935843.921116601
2366,2177160.715809605
4114,30718942.71125346
4126,16519577.605455207
4162,14199365.105798254
4210,6628410.873455453
4236,46823893.752898517
4348,680266.714607962
4473,198151.49219208785
2,1, 1, 1, 0,19, 0.00,60.00,Holiday
11,242158665.52364964
47,106749035.99999982
71,15931835.999999995
346,90817199.99999984
993,101834279.99999984
1017,101834279.99999984
1497,134944533.72052748
1533,28597212.921243654
1557,28597212.921243654
2228,4669524.404793158
2366,1709720.4445568426
4114,28686782.132279979
4126,14487417.026481722
4162,14199365.105798254
4210,18734.36081497139
4236,104637600.35472696
4348,0.0
4473,200308.62576176556
2,1, 1, 1, 0,20, 0.00,60.00,Holiday
11,270480251.55007538
47,124250678.9999998
71,4835078.999999999
346,119415599.9999998
993,118816469.99999982
1017,118816469.99999982
1497,2001158.3628470442
1533,0.0
1557,0.0
2228,4755396.104665236
2366,2001158.3628470442
4114,22657706.44541039
4126,8458341.339612136
4162,14199365.105798254
4210,0.0
4236,0.0
4348,0.0
4473,0.0
2,1, 1, 1, 0,21, 0.00,60.00,Holiday
11,298828976.937202
47,138549878.9999998
71,4835078.999999999
346,133714799.99999979
993,133115669.99999979
1017,133115669.99999979
1497,1669030.5318313868
1533,0.0
1557,0.0
2228,4505721.491791865
2366,1669030.5318313868
4114,22657706.44541039
4126,8458341.339612136
4162,14199365.105798254
4210,0.0
4236,0.0
4348,0.0
4473,0.0
2,1, 1, 1, 0,22, 0.00,60.00,Holiday
11,268314812.32210595
47,124250678.9999998
71,4835078.999999999
346,119415599.9999998
993,118816469.99999982
1017,118816469.99999982
1497,1639042.308766431
1533,0.0
1557,0.0
2228,2589956.876695803
2366,1639042.308766431
4114,22657706.44541039
4126,8458341.339612136
4162,14199365.105798254
4210,0.0
4236,0.0
4348,0.0
4473,0.0
2,1, 1, 1, 0,23, 0.00,60.00,Holiday
11,210994106.45673285
47,95652278.99999984
71,4835078.999999999
346,90817199.99999984
993,90218069.99999985
1017,90218069.99999985
1497,1103755.776862532
1533,0.0
1557,0.0
2228,2466051.0113226908
2366,1103755.776862532
4114,22657706.44541039
4126,8458341.339612136
4162,14199365.105798254
4210,0.0
4236,0.0
4348,0.0
4473,0.0
2,1, 1, 1, 0,24, 0.00,60.00,Holiday
11,123529417.14295376
47,52754678.99999992
71,4835078.999999999
346,47919599.99999992
993,47320469.999999929
1017,47320469.999999929
1497,1245837.89053291
1533,0.0
1557,0.0
2228,796561.6975434165
2366,1245837.89053291
4114,22657706.44541039
4126,8458341.339612136
4162,14199365.105798254
4210,0.0
4236,0.0
4348,0.0
4473,0.0
2,2, 1, 2, 0, 1, 0.00,60.00,Friday
11,66320609.37648027
47,24156278.99999996
71,4835078.999999999
346,19321199.999999968
993,18722069.99999997
1017,18722069.99999997
1497,1027685.0860160606
1533,0.0
1557,0.0
2228,784553.9310699317
2366,1027685.0860160606
4114,22657706.44541039
4126,8458341.339612136
4162,14199365.105798254
4210,0.0
4236,0.0
4348,0.0
4473,0.0
2,2, 1, 2, 0, 2, 0.00,60.00,Friday
11,66326605.38553636
47,24156278.99999996
71,4835078.999999999
346,19321199.999999968
993,18722069.99999997
1017,18722069.99999997
1497,1032118.2489651837
1533,0.0
1557,0.0
2228,790549.940126021
2366,1032118.2489651837
4114,22657706.44541039
4126,8458341.339612136
4162,14199365.105798254
4210,0.0
4236,0.0
4348,0.0
4473,0.0
2,2, 1, 2, 0, 3, 0.00,60.00,Friday
11,67117027.9909573
47,24156278.99999996
71,4835078.999999999
346,19321199.999999968
993,18722069.99999997
1017,18722069.99999997
1497,1032222.3122293175
1533,0.0
1557,0.0
2228,1580972.5455469709
2366,1032222.3122293175
4114,22657706.44541039
4126,8458341.339612136
4162,14199365.105798254
4210,0.0
4236,0.0
4348,0.0
4473,0.0
2,2, 1, 2, 0, 4, 0.00,60.00,Friday
11,66320537.29304105
47,24156278.99999996
71,4835078.999999999
346,19321199.999999968
993,18722069.99999997
1017,18722069.99999997
1497,1027512.2202222388
1533,0.0
1557,0.0
2228,784481.8476307184
2366,1027512.2202222388
4114,22657706.44541039
4126,8458341.339612136
4162,14199365.105798254
4210,0.0
4236,0.0
4348,0.0
4473,0.0
2,2, 1, 2, 0, 5, 0.00,60.00,Friday
11,66334269.61291422
47,24156278.99999996
71,4835078.999999999
346,19321199.999999968
993,18722069.99999997
1017,18722069.99999997
1497,1337692.5372357113
1533,0.0
1557,0.0
2228,784492.5812815013
2366,1027484.9038129276
4114,22671428.031632775
4126,8458341.339612136
4162,14199365.105798254
4210,0.0
4236,310207.63342278366
4348,0.0
4473,0.0
2,2, 1, 2, 0, 6, 0.00,60.00,Friday
11,143429039.1527179
47,53890838.99999992
71,5971238.999999999
346,47919599.99999992
993,47871269.999999929
1017,47871269.999999929
1497,1600345.8686754322
1533,0.0
1557,0.0
2228,784556.3269620675
2366,1033765.1085759787
4114,24714928.905246919
4126,10490501.918585619
4162,14199365.105798254
4210,16167444.920508936
4236,566580.7600994535
4348,0.0
4473,0.0
2,2, 1, 2, 0, 7, 0.00,60.00,Friday
11,216128534.2207921
47,80361638.99999988
71,5971238.999999999
346,74390399.99999988
993,69320069.9999999
1017,69320069.9999999
1497,678661263.3462052
1533,28597212.921243654
1557,28597212.921243654
2228,784550.6183766049
2366,1031968.7822749809
4114,49351100.75830685
4126,23518060.87257272
4162,14199365.105798254
4210,15465722.523010213
4236,649032081.6426865
4348,0.0
4473,845451.3210986483
2,2, 1, 2, 0, 8, 0.00,60.00,Friday
11,231435304.65450249
47,95904582.48301804
71,21514182.483018169
346,74390399.99999988
993,83139479.99999988
1017,83139479.99999988
1497,447442909.0056149
1533,28882321.086319496
1557,28882321.086319496
2228,2569316.299380254
2366,1673523.6530751007
4114,36606931.9423065
4126,16548073.162358178
4162,14199365.105798254
4210,12929623.418244636
4236,416887064.2662203
4348,0.0
4473,285370.5115531725
2,2, 1, 2, 0, 9, 0.00,60.00,Friday
11,289807653.3674363
47,125386929.09241613
71,50996529.09241626
346,74390399.99999988
993,112981499.99999987
1017,112981499.99999987
1497,296630791.466424
1533,285108.16507584266
1557,285108.16507584266
2228,4589748.078549754
2366,2412538.538299442
4114,34608879.88113222
4126,16519577.605455207
4162,14199365.105798254
4210,12020669.782999987
4236,293933144.76304867
4348,0.0
4473,219926.5323383378
2,2, 1, 2, 0,10, 0.00,60.00,Friday
11,346402039.6516259
47,150921711.16248603
71,76531311.16248608
346,74390399.99999988
993,143958059.99999995
1017,143958059.99999995
1497,201971123.20920886
1533,285108.16507584266
1557,285108.16507584266
2228,5989933.018371701
2366,2555738.481594463
4114,33925227.63095402
4126,16563720.45128553
4162,14199365.105798254
4210,11403125.080755946
4236,199130276.56253857
4348,0.0
4473,203982.7590582978
2,2, 1, 2, 0,11, 0.00,60.00,Friday
11,303273882.1993766
47,129385401.55384714
71,76443801.55384717
346,52941599.9999999
993,122509259.99999996
1017,122509259.99999996
1497,173793849.37114666
1533,513194.69713651677
1557,513194.69713651677
2228,7656047.78971336
2366,3059384.4832034406
4114,34244657.8764616
4126,16609490.817315579
4162,14199365.105798254
4210,9278549.77448977
4236,170221270.1908067
4348,0.0
4473,199965.20486472219
2,2, 1, 2, 0,12, 0.00,60.00,Friday
11,303596957.80788716
47,129205563.25627288
71,76263963.25627291
346,52941599.9999999
993,122509259.99999996
1017,122509259.99999996
1497,147374516.92456163
1533,11952079.865633984
1557,11952079.865633984
2228,10549919.768416092
2366,3913584.358427873
4114,33476311.317981356
4126,16849464.662522798
4162,14199365.105798254
4210,7657138.689026115
4236,131508852.70049978
4348,0.0
4473,198764.77619083035
2,2, 1, 2, 0,13, 0.00,60.00,Friday
11,306561356.69054356
47,129140348.07770197
71,76198748.07770199
346,52941599.9999999
993,122509259.99999996
1017,122509259.99999996
1497,157173718.20675398
1533,11952079.865633984
1557,11952079.865633984
2228,12354822.938592356
2366,4390765.273513579
4114,33841342.41564471
4126,16913089.345420518
4162,14199365.105798254
4210,8516749.147878085
4236,140830873.0676064
4348,0.0
4473,198834.11072646187
2,2, 1, 2, 0,14, 0.00,60.00,Friday
11,306927983.53683736
47,129374212.86158991
71,76432612.86158994
346,52941599.9999999
993,122509259.99999996
1017,122509259.99999996
1497,195680084.24352253
1533,513194.69713651677
1557,513194.69713651677
2228,11445772.79868193
2366,4025434.7005299779
4114,35057662.530986938
4126,16961907.688572244
4162,14199365.105798254
4210,8340585.566619681
4236,191141454.84585605
4348,0.0
4473,200489.77895886577
2,2, 1, 2, 0,15, 0.00,60.00,Friday
11,306320642.9458331
47,129542769.34391684
71,76601169.34391687
346,52941599.9999999
993,122509259.99999996
1017,122509259.99999996
1497,214182867.1595146
1533,427662.2476137639
1557,427662.2476137639
2228,9673529.806275122
2366,3429655.0567416038
4114,35660068.36020644
4126,17044981.80969394
4162,14199365.105798254
4210,8733570.973817213
4236,210325549.85515923
4348,0.0
4473,201444.46161757576
2,2, 1, 2, 0,16, 0.00,60.00,Friday
11,304244523.46291717
47,129434544.08649394
71,76492944.08649397
346,52941599.9999999
993,122509259.99999996
1017,122509259.99999996
1497,194166157.49697224
1533,427662.2476137639
1557,427662.2476137639
2228,7993899.481721499
2366,3155301.184288598
4114,35548585.54032513
4126,17468178.379361754
4162,14199365.105798254
4210,8557575.774852327
4236,190583194.0650699
4348,0.0
4473,200658.57952438564
2,2, 1, 2, 0,17, 0.00,60.00,Friday
11,305618628.0407747
47,130495015.7270489
71,77553415.72704894
346,52941599.9999999
993,122509259.99999996
1017,122509259.99999996
1497,203310696.9845889
1533,29024875.168857416
1557,29024875.168857416
2228,9244105.743030722
2366,3213753.7268379006
4114,34982282.85342831
4126,17380361.16549022
4162,14199365.105798254
4210,8188023.250018969
4236,171072068.0888936
4348,0.0
4473,199940.4672478397
2,2, 1, 2, 0,18, 0.00,60.00,Friday
11,295896756.2148118
47,123776342.99999996
71,70834742.99999997
346,52941599.9999999
993,118102859.99999997
1017,118102859.99999997
1497,194803692.55495353
1533,29024875.168857416
1557,29024875.168857416
2228,8736763.291208324
2366,3214006.3872977357
4114,34464528.85393351
4126,16998254.730945074
4162,14199365.105798254
4210,10616805.95742202
4236,162564810.99879838
4348,0.0
4473,199455.1122480057
2,2, 1, 2, 0,19, 0.00,60.00,Friday
11,330047324.55007198
47,143344268.99999986
71,47505068.99999999
346,95839199.99999984
993,135564839.99999989
1017,135564839.99999989
1497,158141634.33008934
1533,28597212.921243654
1557,28597212.921243654
2228,8305362.207650804
2366,2723210.652982264
4114,31643880.23331821
4126,16687116.906593809
4162,14199365.105798254
4210,10987780.294170546
4236,126821210.75586345
4348,0.0
4473,201192.8149327214
2,2, 1, 2, 0,20, 0.00,60.00,Friday
11,384521081.003759
47,171942668.99999974
71,47505068.99999999
346,124437599.9999998
993,164163239.99999974
1017,164163239.99999974
1497,117611423.91988345
1533,0.0
1557,0.0
2228,6103463.519808486
2366,2443150.843997469
4114,30845883.57661733
4126,16554455.927168834
4162,14199365.105798254
4210,11264062.478565675
4236,115168273.07588597
4348,0.0
4473,201762.42876785802
2,2, 1, 2, 0,21, 0.00,60.00,Friday
11,398146696.0391943
47,180270629.9999997
71,41533829.999999988
346,138736799.9999998
993,169616699.99999974
1017,169616699.99999974
1497,119473944.86161776
1533,0.0
1557,0.0
2228,6043739.129124555
2366,2441000.2983134968
4114,30748830.974055593
4126,16519577.605455207
4162,14199365.105798254
4210,11264647.987331413
4236,117032944.56330428
4348,0.0
4473,202147.94868308604
2,2, 1, 2, 0,22, 0.00,60.00,Friday
11,315895919.886584
47,143777915.9999998
71,19340315.999999998
346,124437599.9999998
993,132085079.9999998
1017,132085079.9999998
1497,2243295.8556200538
1533,0.0
1557,0.0
2228,4586109.168709682
2366,1700936.702611799
4114,24713857.497472459
4126,10490501.918585619
4162,14199365.105798254
4210,10732957.220402178
4236,542359.1530082545
4348,0.0
4473,0.0
2,2, 1, 2, 0,23, 0.00,60.00,Friday
11,225199437.55818445
47,96788438.99999984
71,5971238.999999999
346,90817199.99999984
993,90768869.99999985
1017,90768869.99999985
1497,1413512.9862733084
1533,0.0
1557,0.0
2228,2526747.6562215846
2366,1413512.9862733084
4114,24689867.024383874
4126,10490501.918585619
4162,14199365.105798254
4210,10425513.87757924
4236,0.0
4348,0.0
4473,0.0
2,2, 1, 2, 0,24, 0.00,60.00,Friday
11,136808432.90460996
47,52754678.99999992
71,4835078.999999999
346,47919599.99999992
993,47320469.999999929
1017,47320469.999999929
1497,1237378.9752302983
1533,0.0
1557,0.0
2228,1617903.0026468894
2366,1237378.9752302983
4114,24689867.024383874
4126,10490501.918585619
4162,14199365.105798254
4210,10425513.87757924
4236,0.0
4348,0.0
4473,0.0
2,3, 1, 3, 0, 1, 0.00,60.00,Saturday
11,68020858.6963929
47,24156278.99999996
71,4835078.999999999
346,19321199.999999968
993,18722069.99999997
1017,18722069.99999997
1497,1327652.3593386163
1533,0.0
1557,0.0
2228,2484803.250982562
2366,1327652.3593386163
4114,22657706.44541039
4126,8458341.339612136
4162,14199365.105798254
4210,0.0
4236,0.0
4348,0.0
4473,0.0
2,3, 1, 3, 0, 2, 0.00,60.00,Saturday
11,67181075.53142995
47,24156278.99999996
71,4835078.999999999
346,19321199.999999968
993,18722069.99999997
1017,18722069.99999997
1497,1321403.5641288893
1533,0.0
1557,0.0
2228,1645020.0860196069
2366,1321403.5641288893
4114,22657706.44541039
4126,8458341.339612136
4162,14199365.105798254
4210,0.0
4236,0.0
4348,0.0
4473,0.0
2,3, 1, 3, 0, 3, 0.00,60.00,Saturday
11,67154400.56804255
47,24156278.99999996
71,4835078.999999999
346,19321199.999999968
993,18722069.99999997
1017,18722069.99999997
1497,1046836.0603028636
1533,0.0
1557,0.0
2228,1618345.1226322205
2366,1046836.0603028636
4114,22657706.44541039
4126,8458341.339612136
4162,14199365.105798254
4210,0.0
4236,0.0
4348,0.0
4473,0.0
2,3, 1, 3, 0, 4, 0.00,60.00,Saturday
11,66332574.113816689
47,24156278.99999996
71,4835078.999999999
346,19321199.999999968
993,18722069.99999997
1017,18722069.99999997
1497,1037474.662669138
1533,0.0
1557,0.0
2228,796518.6684063489
2366,1037474.662669138
4114,22657706.44541039
4126,8458341.339612136
4162,14199365.105798254
4210,0.0
4236,0.0
4348,0.0
4473,0.0
2,3, 1, 3, 0, 5, 0.00,60.00,Saturday
11,67129307.02569127
47,24156278.99999996
71,4835078.999999999
346,19321199.999999968
993,18722069.99999997
1017,18722069.99999997
1497,1296701.7453138568
1533,0.0
1557,0.0
2228,1593251.5802809224
2366,1296701.7453138568
4114,22657706.44541039
4126,8458341.339612136
4162,14199365.105798254
4210,0.0
4236,0.0
4348,0.0
4473,0.0
2,3, 1, 3, 0, 6, 0.00,60.00,Saturday
11,145619576.40027119
47,52754678.99999992
71,4835078.999999999
346,47919599.99999992
993,47320469.999999929
1017,47320469.999999929
1497,1295822.4487317266
1533,0.0
1557,0.0
2228,796601.4727308366
2366,1043554.0894876183
4114,24701025.750571085
4126,10490501.918585619
4162,14199365.105798254
4210,20046800.17696929
4236,252268.35924410815
4348,0.0
4473,0.0
2,3, 1, 3, 0, 7, 0.00,60.00,Saturday
11,219519261.9400548
47,80361638.99999988
71,5971238.999999999
346,74390399.99999988
993,69320069.9999999
1017,69320069.9999999
1497,665590181.5308883
1533,28597212.921243654
1557,28597212.921243654
2228,1605497.902341514
2366,1244069.9697980327
4114,48123864.830622877
4126,21649987.746728485
4162,14199365.105798254
4210,19469471.641391104
4236,635748898.6398467
4348,0.0
4473,638718.5656995188
2,3, 1, 3, 0, 8, 0.00,60.00,Saturday
11,215801807.66843087
47,83620577.50159049
71,9230177.501590616
346,74390399.99999988
993,73192139.99999988
1017,73192139.99999988
1497,449591875.2111187
1533,28597212.921243654
1557,28597212.921243654
2228,3573696.431988105
2366,1755667.7093301982
4114,35946971.50753479
4126,16522309.481415214
4162,14199365.105798254
4210,19171901.510858854
4236,419238994.5805449
4348,0.0
4473,296520.7164587149
2,3, 1, 3, 0, 9, 0.00,60.00,Saturday
11,249809258.6649121
47,101373680.98326472
71,26983280.98326485
346,74390399.99999988
993,90883619.99999987
1017,90883619.99999987
1497,309906737.6737558
1533,285108.16507584266
1557,285108.16507584266
2228,4628911.202950451
2366,2026329.927264925
4114,33294305.988463746
4126,16519577.605455207
4162,14199365.105798254
4210,19386708.22694507
4236,307595299.58141508
4348,0.0
4473,242032.26328822855
2,3, 1, 3, 0,10, 0.00,60.00,Saturday
11,282130398.35629329
47,117931552.3151332
71,43541152.31513332
346,74390399.99999988
993,114116039.99999988
1017,114116039.99999988
1497,174413353.17559103
1533,285108.16507584266
1557,285108.16507584266
2228,5482832.0088991
2366,2087228.1140517917
4114,31806253.933668946
4126,16563732.645787105
4162,14199365.105798256
4210,12585691.996968214
4236,172041016.8964634
4348,0.0
4473,208028.1016239004
2,3, 1, 3, 0,11, 0.00,60.00,Saturday
11,282061806.1739139
47,116379206.10812593
71,63437606.10812594
346,52941599.9999999
993,115899659.99999997
1017,115899659.99999997
1497,106561730.4502372
1533,513194.69713651677
1557,513194.69713651677
2228,7998866.498949723
2366,2903217.497813032
4114,31425269.118227424
4126,16667005.187517832
4162,14199365.105798254
4210,10158968.111500334
4236,103145318.25528765
4348,0.0
4473,199836.337110612
2,3, 1, 3, 0,12, 0.00,60.00,Saturday
11,284008662.09555456
47,116552828.22243536
71,63611228.22243536
346,52941599.9999999
993,115899659.99999997
1017,115899659.99999997
1497,80475803.5564082
1533,11952079.865633984
1557,11952079.865633984
2228,10148504.760545856
2366,3154748.52481185
4114,31415533.242012167
4126,16937358.124718526
4162,14199365.105798254
4210,9247850.044133064
4236,65368975.16596236
4348,545943.7248499221
4473,198342.1015782391
2,3, 1, 3, 0,13, 0.00,60.00,Saturday
11,281910089.7530148
47,113439465.50495547
71,60497865.504955489
346,52941599.9999999
993,114247259.99999997
1017,114247259.99999997
1497,67613117.61731293
1533,11952079.865633984
1557,11952079.865633984
2228,10814899.91144103
2366,3588771.965663407
4114,31762152.508807396
4126,17023915.183778228
4162,14199365.105798254
4210,8946902.182199138
4236,52072265.78601553
4348,2501244.6581709727
4473,198164.9874408843
2,3, 1, 3, 0,14, 0.00,60.00,Saturday
11,284744678.3273174
47,113355794.01978979
71,60414194.019789788
346,52941599.9999999
993,114247259.99999997
1017,114247259.99999997
1497,32932401.21508557
1533,513194.69713651677
1557,513194.69713651677
2228,11608820.023714807
2366,3556077.387514203
4114,32595802.1865376
4126,17539649.718854198
4162,14199365.105798254
4210,8498105.829992708
4236,28863129.130434853
4348,4240557.134894485
4473,198339.13238811255
2,3, 1, 3, 0,15, 0.00,60.00,Saturday
11,282750852.68461588
47,113097909.34311696
71,60156309.34311698
346,52941599.9999999
993,114247259.99999997
1017,114247259.99999997
1497,12724178.332583692
1533,427662.2476137639
1557,427662.2476137639
2228,8990989.096936338
2366,2973489.5765477644
4114,33298582.97032412
4126,18136152.360590649
4162,14199365.105798254
4210,8147090.970814792
4236,9323026.508422165
4348,4770226.0653250799
4473,198794.2380986695
2,3, 1, 3, 0,16, 0.00,60.00,Saturday
11,282027155.87888076
47,113412552.91857553
71,60470952.91857554
346,52941599.9999999
993,114247259.99999997
1017,114247259.99999997
1497,5919292.275917469
1533,427662.2476137639
1557,427662.2476137639
2228,9447001.317106698
2366,2761347.434523801
4114,33469020.410141156
4126,18452704.525496145
4162,14199365.105798254
4210,7201663.943310766
4236,2730282.593779904
4348,4050621.9989221806
4473,199035.2908245733
2,3, 1, 3, 0,17, 0.00,60.00,Saturday
11,283675794.38228097
47,117755833.69565727
71,64814233.69565728
346,52941599.9999999
993,114247259.99999997
1017,114247259.99999997
1497,34593490.2389722
1533,29024875.168857416
1557,29024875.168857416
2228,9186417.366325047
2366,2877901.044592322
4114,33208515.680572917
4126,18621166.116783967
4162,14199365.105798254
4210,7153717.64715213
4236,2690714.025522462
4348,1925013.5345940449
4473,199036.4579796167
2,3, 1, 3, 0,18, 0.00,60.00,Saturday
11,274020842.54373219
47,111937382.99999996
71,64017782.99999998
346,47919599.99999992
993,113145659.99999997
1017,113145659.99999997
1497,45354342.1820976
1533,28597212.921243654
1557,28597212.921243654
2228,8227430.546907857
2366,2882904.1959190519
4114,32093442.097281077
4126,17883466.286851977
4162,14199365.105798254
4210,8365589.120372282
4236,13874225.064934895
4348,52674.65593872214
4473,198663.1232323994
2,3, 1, 3, 0,19, 0.00,60.00,Saturday
11,303104223.91346636
47,128942549.99999987
71,38125349.999999988
346,90817199.99999984
993,125066699.99999988
1017,125066699.99999988
1497,100277118.48284947
1533,28597212.921243654
1557,28597212.921243654
2228,8778861.127926868
2366,2533134.4242464166
4114,30722574.683534389
4126,16523209.577736132
4162,14199365.105798254
4210,9395044.969907515
4236,69146771.1373594
4348,0.0
4473,198493.1320977895
2,3, 1, 3, 0,20, 0.00,60.00,Saturday
11,316284522.10199448
47,142745273.9999998
71,23329673.999999994
346,119415599.9999998
993,138176819.9999998
1017,138176819.9999998
1497,113792019.03247103
1533,0.0
1557,0.0
2228,6454522.9563406989
2366,2422969.5685800255
4114,28686782.132279979
4126,14487417.026481722
4162,14199365.105798254
4210,19939.562348561416
4236,111369049.463891
4348,0.0
4473,201183.45102555699
2,3, 1, 3, 0,21, 0.00,60.00,Saturday
11,344346306.87454077
47,157044473.99999977
71,23329673.999999994
346,133714799.99999979
993,152476019.99999977
1017,152476019.99999977
1497,137218778.50732184
1533,0.0
1557,0.0
2228,5814747.16436221
2366,2042362.4293944827
4114,28702991.180015834
4126,14487417.026481722
4162,14199365.105798254
4210,24202.043470927023
4236,135176416.07792736
4348,80602.34245037844
4473,203270.14424179184
2,3, 1, 3, 0,22, 0.00,60.00,Saturday
11,283599916.3025126
47,127949597.9999998
71,8533997.999999999
346,119415599.9999998
993,122688539.9999998
1017,122688539.9999998
1497,194680432.91968654
1533,0.0
1557,0.0
2228,3975966.2370564264
2366,1696058.5663397765
4114,28695411.065609069