Program Version,EnergyPlus, Version 9.0.1-bb7ca4f0da, YMD=2019.12.17 18:18
1,5,Environment Title[],Latitude[deg],Longitude[deg],Time Zone[],Elevation[m]
2,8,Day of Simulation[],Month[],Day of Month[],DST Indicator[1=yes 0=no],Hour[],StartMinute[],EndMinute[],DayType
3,5,Cumulative Day of Simulation[],Month[],Day of Month[],DST Indicator[1=yes 0=no],DayType  ! When Daily Meters Requested
4,2,Cumulative Days of Simulation[],Month[]  ! When Monthly Meters Requested
5,1,Cumulative Days of Simulation[] ! When Run Period Meters Requested
6,1,Calendar Year of Simulation[] ! When Annual Meters Requested
1497,1,Gas:Facility [J] !Hourly
2228,1,WaterSystems:Electricity [J] !Hourly
47,1,InteriorLights:Electricity [J] !Hourly
993,1,InteriorEquipment:Electricity [J] !Hourly
11,1,Electricity:Facility [J] !Hourly
4122,1,Fans:Electricity [J] !Hourly
4480,1,Pumps:Electricity [J] !Hourly
4244,1,Heating:Electricity [J] !Hourly
4355,1,Cooling:Electricity [J] !Hourly
1533,1,InteriorEquipment:Gas [J] !Hourly
4231,1,Heating:Gas [J] !Hourly
2366,1,WaterSystems:Gas [J] !Hourly
1017,1,Receptacle:InteriorEquipment:Electricity [J] !Hourly
1557,1,Receptacle:InteriorEquipment:Gas [J] !Hourly
71,1,ComplianceLtg:InteriorLights:Electricity [J] !Hourly
346,1,NonComplianceLtg:InteriorLights:Electricity [J] !Hourly
4134,1,General:Fans:Electricity [J] !Hourly
4171,1,ProcessMotors:Fans:Electricity [J] !Hourly
End of Data Dictionary
1,PALMDALE_723820_CZ2010,  34.63,-118.08,  -8.00, 769.00
2,1, 1, 1, 0, 1, 0.00,60.00,Holiday
11,55712137.319340679
47,24156278.99999996
71,4835078.999999999
346,19321199.999999968
993,18722069.99999997
1017,18722069.99999997
1497,1043828.742275753
1533,0.0
1557,0.0
2228,800651.3557249818
2366,1043828.742275753
4122,12033136.963615733
4134,8488078.333418435
4171,3545058.6301972984
4231,0.0
4244,0.0
4355,0.0
4480,0.0
2,1, 1, 1, 0, 2, 0.00,60.00,Holiday
11,56513007.006004247
47,24156278.99999996
71,4835078.999999999
346,19321199.999999968
993,18722069.99999997
1017,18722069.99999997
1497,1044096.0055172343
1533,0.0
1557,0.0
2228,1601521.0423885503
2366,1044096.0055172343
4122,12033136.963615733
4134,8488078.333418435
4171,3545058.6301972984
4231,0.0
4244,0.0
4355,0.0
4480,0.0
2,1, 1, 1, 0, 3, 0.00,60.00,Holiday
11,56512987.16415094
47,24156278.99999996
71,4835078.999999999
346,19321199.999999968
993,18722069.99999997
1017,18722069.99999997
1497,1305262.9594203875
1533,0.0
1557,0.0
2228,1601501.2005352337
2366,1305262.9594203875
4122,12033136.96361573
4134,8488078.333418433
4171,3545058.630197298
4231,0.0
4244,0.0
4355,0.0
4480,0.0
2,1, 1, 1, 0, 4, 0.00,60.00,Holiday
11,56515660.76382591
47,24156278.99999996
71,4835078.999999999
346,19321199.999999968
993,18722069.99999997
1017,18722069.99999997
1497,1404845.0184592852
1533,0.0
1557,0.0
2228,1587647.637754072
2366,1038713.2123968456
4122,12049664.126071865
4134,8488078.333418435
4171,3545058.6301972984
4231,366131.80606243977
4244,0.0
4355,0.0
4480,0.0
2,1, 1, 1, 0, 5, 0.00,60.00,Holiday
11,56593455.54536037
47,24156278.99999996
71,4835078.999999999
346,19321199.999999968
993,18722069.99999997
1017,18722069.99999997
1497,3209043.896736168
1533,0.0
1557,0.0
2228,1587644.4404370073
2366,1038852.4264800919
4122,12127462.1049234
4134,8488078.333418435
4171,3545058.6301972984
4231,2170191.470256076
4244,0.0
4355,0.0
4480,0.0
2,1, 1, 1, 0, 6, 0.00,60.00,Holiday
11,114964618.60692774
47,52754678.99999992
71,4835078.999999999
346,47919599.99999992
993,47320469.999999929
1017,47320469.999999929
1497,44541423.59196168
1533,0.0
1557,0.0
2228,793992.6950986156
2366,1306969.7685221399
4122,14056924.258094892
4134,10430414.969861363
4171,3545058.6301972984
4231,43234453.82343954
4244,7406.691348537238
4355,0.0
4480,31145.962385710875
2,1, 1, 1, 0, 7, 0.00,60.00,Holiday
11,176405567.62318085
47,74203478.99999988
71,4835078.999999999
346,69368399.9999999
993,68769269.9999999
1017,68769269.9999999
1497,445985362.74704727
1533,28597212.921243654
1557,28597212.921243654
2228,1601246.7050116275
2366,1044158.2108620736
4122,31793588.164218405
4134,10430414.969861363
4171,3545058.630197298
4231,416343991.6149416
4244,6732.085060155886
4355,0.0
4480,31251.668890812616
2,1, 1, 1, 0, 8, 0.00,60.00,Holiday
11,171579239.57520355
47,74193396.8068998
71,4824996.806899916
346,69368399.9999999
993,68769269.9999999
1017,68769269.9999999
1497,285657556.98691418
1533,28597212.921243654
1557,28597212.921243654
2228,2465513.3207736446
2366,1325513.8559983762
4122,26113304.3310064
4134,12190711.85928179
4171,3545058.6301972984
4231,255734830.2096721
4244,6177.690947937576
4355,0.0
4480,31577.425575776877
2,1, 1, 1, 0, 9, 0.00,60.00,Holiday
11,189747685.88881944
47,77788723.45008946
71,8420323.450089584
346,69368399.9999999
993,72641339.99999988
1017,72641339.99999988
1497,529439905.21964499
1533,0.0
1557,0.0
2228,2509952.6858704306
2366,1339611.5779774893
4122,35862058.439172837
4134,24814056.805525803
4171,3545058.6301972984
4231,528100293.64166757
4244,80654.05203589982
4355,0.0
4480,864957.2616508394
2,1, 1, 1, 0,10, 0.00,60.00,Holiday
11,177717318.18452
47,77593285.00797159
71,8224885.00797172
346,69368399.9999999
993,72641339.99999988
1017,72641339.99999988
1497,343122087.6117754
1533,0.0
1557,0.0
2228,2555455.74647289
2366,1624317.7885080318
4122,24759650.818528024
4134,16666409.173583195
4171,3545058.6301972984
4231,341497769.8232674
4244,49271.70851332013
4355,0.0
4480,118314.90303417084
2,1, 1, 1, 0,11, 0.00,60.00,Holiday
11,183668197.61574129
47,77685475.68439643
71,29765875.684396488
346,47919599.99999992
993,74424959.99999996
1017,74424959.99999996
1497,284059287.6033294
1533,0.0
1557,0.0
2228,5923877.397325563
2366,2059290.7008128088
4122,25567459.57365847
4134,16633320.45790584
4171,3545058.6301972984
4231,281999996.90251669
4244,31009.847942636698
4355,0.0
4480,35415.112418195895
2,1, 1, 1, 0,12, 0.00,60.00,Holiday
11,181910833.87180437
47,76473050.46297038
71,28553450.462970426
346,47919599.99999992
993,74424959.99999996
1017,74424959.99999996
1497,246912718.25842379
1533,11438885.168497468
1557,11438885.168497468
2228,7061352.936878427
2366,2093566.6485560435
4122,23892620.581084707
4134,16633320.45790584
4171,3545058.6301972984
4231,233380266.44137026
4244,28023.00835140138
4355,0.0
4480,30826.882519474617
2,1, 1, 1, 0,13, 0.00,60.00,Holiday
11,205874708.46728219
47,86100411.04130052
71,38180811.04130055
346,47919599.99999992
993,89913239.99999997
1017,89913239.99999997
1497,162961591.6437106
1533,11438885.168497468
1557,11438885.168497468
2228,7465490.787340863
2366,2466339.1153166724
4122,22348900.25652959
4134,16633320.45790584
4171,3545058.6301972984
4231,149056367.35989649
4244,18202.376201574
4355,0.0
4480,28464.005909713127
2,1, 1, 1, 0,14, 0.00,60.00,Holiday
11,204194200.91623075
47,85846866.29845155
71,37927266.29845158
346,47919599.99999992
993,89913239.99999997
1017,89913239.99999997
1497,99376276.60579765
1533,0.0
1557,0.0
2228,7466073.90647064
2366,2516958.2146696078
4122,20924722.470244484
4134,16633320.45790584
4171,3545058.6301972984
4231,96859318.39112804
4244,14162.763478643868
4355,0.0
4480,29135.477585420173
2,1, 1, 1, 0,15, 0.00,60.00,Holiday
11,203517451.94670785
47,86338690.39436518
71,38419090.39436521
346,47919599.99999992
993,89913239.99999997
1017,89913239.99999997
1497,84643673.9902708
1533,0.0
1557,0.0
2228,6586208.686406684
2366,2406460.06970671
4122,20637028.83030857
4134,16633320.45790584
4171,3545058.6301972984
4231,82237213.92056409
4244,12666.228651528489
4355,0.0
4480,29617.806975925225
2,1, 1, 1, 0,16, 0.00,60.00,Holiday
11,203654154.77625863
47,86065565.30307883
71,38145965.30307887
346,47919599.99999992
993,89913239.99999997
1017,89913239.99999997
1497,85325428.74302802
1533,0.0
1557,0.0
2228,7045609.089383788
2366,2438135.089622238
4122,20587198.830163924
4134,16633320.45790584
4171,3545058.6301972984
4231,82887293.65340579
4244,12990.777149919979
4355,0.0
4480,29550.776482159734
2,1, 1, 1, 0,17, 0.00,60.00,Holiday
11,207521406.24754269
47,88928222.3859295
71,41008622.38592951
346,47919599.99999992
993,89913239.99999997
1017,89913239.99999997
1497,140321662.70197059
1533,28597212.921243654
1557,28597212.921243654
2228,7777312.553438762
2366,2467335.141382361
4122,20857374.09498403
4134,16633320.45790584
4171,3545058.6301972984
4231,109257114.63934458
4244,16527.753942187723
4355,0.0
4480,28729.459248225598
2,1, 1, 1, 0,18, 0.00,60.00,Holiday
11,181967467.89436776
47,78647111.99999994
71,30727511.99999999
346,47919599.99999992
993,74424959.99999996
1017,74424959.99999996
1497,197002284.31833828
1533,28597212.921243654
1557,28597212.921243654
2228,7079706.169506664
2366,2423037.559018171
4122,21763655.92547644
4134,16633320.45790584
4171,3545058.630197298
4231,165982033.8380764
4244,23003.465440980144
4355,0.0
4480,29030.33394378455
2,1, 1, 1, 0,19, 0.00,60.00,Holiday
11,232989047.34228505
47,106749035.99999982
71,15931835.999999995
346,90817199.99999984
993,101834279.99999984
1017,101834279.99999984
1497,201806147.31312416
1533,28597212.921243654
1557,28597212.921243654
2228,5683221.039889227
2366,1725260.8018793285
4122,18661199.799039194
4134,14690983.821462907
4171,3545058.630197298
4231,171483673.59000115
4244,29577.462016001242
4355,0.0
4480,31733.041340775373
2,1, 1, 1, 0,20, 0.00,60.00,Holiday
11,260468735.2213123
47,124250678.9999998
71,4835078.999999999
346,119415599.9999998
993,118816469.99999982
1017,118816469.99999982
1497,3343010.761131842
1533,0.0
1557,0.0
2228,5314838.193642641
2366,2035644.251681231
4122,12086748.02766988
4134,8488078.333418435
4171,3545058.6301972984
4231,1307366.5094506115
4244,0.0
4355,0.0
4480,0.0
2,1, 1, 1, 0,21, 0.00,60.00,Holiday
11,287820772.96316376
47,138549878.9999998
71,4835078.999999999
346,133714799.99999979
993,133115669.99999979
1017,133115669.99999979
1497,2531563.1389972975
1533,0.0
1557,0.0
2228,4096926.274027853
2366,1968403.4467694078
4122,12058297.689136187
4134,8488078.333418435
4171,3545058.6301972984
4231,563159.6922278898
4244,0.0
4355,0.0
4480,0.0
2,1, 1, 1, 0,22, 0.00,60.00,Holiday
11,258621037.52605
47,124250678.9999998
71,4835078.999999999
346,119415599.9999998
993,118816469.99999982
1017,118816469.99999982
1497,2551002.2948166017
1533,0.0
1557,0.0
2228,3471648.221201895
2366,1444212.264847378
4122,12082240.30484833
4134,8488078.333418435
4171,3545058.6301972984
4231,1106790.0299692234
4244,0.0
4355,0.0
4480,0.0
2,1, 1, 1, 0,23, 0.00,60.00,Holiday
11,200368874.86418278
47,95652278.99999984
71,4835078.999999999
346,90817199.99999984
993,90218069.99999985
1017,90218069.99999985
1497,1261379.5964265618
1533,0.0
1557,0.0
2228,2465388.900567235
2366,1261379.5964265618
4122,12033136.963615733
4134,8488078.333418435
4171,3545058.6301972984
4231,0.0
4244,0.0
4355,0.0
4480,0.0
2,1, 1, 1, 0,24, 0.00,60.00,Holiday
11,113129234.63874364
47,52754678.99999992
71,4835078.999999999
346,47919599.99999992
993,47320469.999999929
1017,47320469.999999929
1497,1298508.0309219473
1533,0.0
1557,0.0
2228,1020948.6751279412
2366,1298508.0309219473
4122,12033136.963615733
4134,8488078.333418435
4171,3545058.6301972984
4231,0.0
4244,0.0
4355,0.0
4480,0.0
2,2, 1, 2, 0, 1, 0.00,60.00,Friday
11,56249322.76264575
47,24156278.99999996
71,4835078.999999999
346,19321199.999999968
993,18722069.99999997
1017,18722069.99999997
1497,1030060.5043313623
1533,0.0
1557,0.0
2228,1337836.799030047
2366,1030060.5043313623
4122,12033136.963615733
4134,8488078.333418435
4171,3545058.6301972984
4231,0.0
4244,0.0
4355,0.0
4480,0.0
2,2, 1, 2, 0, 2, 0.00,60.00,Friday
11,55698701.51065031
47,24156278.99999996
71,4835078.999999999
346,19321199.999999968
993,18722069.99999997
1017,18722069.99999997
1497,1035402.361835731
1533,0.0
1557,0.0
2228,787215.5470346016
2366,1035402.361835731
4122,12033136.963615733
4134,8488078.333418435
4171,3545058.6301972984
4231,0.0
4244,0.0
4355,0.0
4480,0.0
2,2, 1, 2, 0, 3, 0.00,60.00,Friday
11,56199462.32448524
47,24156278.99999996
71,4835078.999999999
346,19321199.999999968
993,18722069.99999997
1017,18722069.99999997
1497,1035593.1133905244
1533,0.0
1557,0.0
2228,1287976.3608695486
2366,1035593.1133905244
4122,12033136.963615733
4134,8488078.333418435
4171,3545058.6301972984
4231,0.0
4244,0.0
4355,0.0
4480,0.0
2,2, 1, 2, 0, 4, 0.00,60.00,Friday
11,55975951.367041479
47,24156278.99999996
71,4835078.999999999
346,19321199.999999968
993,18722069.99999997
1017,18722069.99999997
1497,1030487.8452025019
1533,0.0
1557,0.0
2228,1064465.403425773
2366,1030487.8452025019
4122,12033136.963615733
4134,8488078.333418435
4171,3545058.6301972984
4231,0.0
4244,0.0
4355,0.0
4480,0.0
2,2, 1, 2, 0, 5, 0.00,60.00,Friday
11,55728180.69808509
47,24156278.99999996
71,4835078.999999999
346,19321199.999999968
993,18722069.99999997
1017,18722069.99999997
1497,1840653.7540417803
1533,0.0
1557,0.0
2228,780540.9650334854
2366,1030533.9235538873
4122,12069290.733051639
4134,8488078.333418435
4171,3545058.6301972984
4231,810119.830487893
4244,0.0
4355,0.0
4480,0.0
2,2, 1, 2, 0, 6, 0.00,60.00,Friday
11,118431065.6963664
47,53890838.99999992
71,5971238.999999999
346,47919599.99999992
993,47871269.999999929
1017,47871269.999999929
1497,156354480.67601998
1533,0.0
1557,0.0
2228,780709.596969714
2366,1037553.7524232499
4122,15720409.385713797
4134,12146582.383747084
4171,3545058.6301972984
4231,155316926.9235967
4244,29805.68444053819
4355,0.0
4480,138032.02924236452
2,2, 1, 2, 0, 7, 0.00,60.00,Friday
11,196033349.09267716
47,80361638.99999988
71,5971238.999999999
346,74390399.99999988
993,69320069.9999999
1017,69320069.9999999
1497,816695029.4866015
1533,28597212.921243654
1557,28597212.921243654
2228,780707.2708875806
2366,1293914.5320321157
4122,44310979.473340358
4134,24235597.36133656
4171,3545058.6301972984
4231,786803902.0333257
4244,99005.60329344841
4355,0.0
4480,1160947.745155848
2,2, 1, 2, 0, 8, 0.00,60.00,Friday
11,212407422.68503658
47,95964111.53192374
71,21573711.53192386
346,74390399.99999988
993,83139479.99999988
1017,83139479.99999988
1497,554872716.3360473
1533,28882321.086319496
1557,28882321.086319496
2228,3439959.272823287
2366,1692231.1054561437
4122,29539909.364999337
4134,16663937.051240776
4171,3545058.6301972984
4231,524298164.1442717
4244,71369.77928630027
4355,0.0
4480,252592.73600394623
2,2, 1, 2, 0, 9, 0.00,60.00,Friday
11,271157262.26144435
47,125688277.73815033
71,51297877.73815045
346,74390399.99999988
993,112981499.99999987
1017,112981499.99999987
1497,402738470.10533836
1533,285108.16507584266
1557,285108.16507584266
2228,4645059.614383724
2366,2460108.207242663
4122,27724993.66039665
4134,16633320.45790584
4171,3545058.6301972984
4231,399993253.7330198
4244,48692.31759452395
4355,0.0
4480,68738.93091913215
2,2, 1, 2, 0,10, 0.00,60.00,Friday
11,328690884.2595874
47,150737670.9956237
71,76347270.99562377
346,74390399.99999988
993,143958059.99999995
1017,143958059.99999995
1497,339684617.75389316
1533,285108.16507584266
1557,285108.16507584266
2228,6888806.142603163
2366,2951738.9480464204
4122,27025331.36108629
4134,16665482.21732072
4171,3545058.630197298
4231,336447770.64077088
4244,37113.167379758415
4355,0.0
4480,43902.59289465117
2,2, 1, 2, 0,11, 0.00,60.00,Friday
11,287661746.90189
47,128775913.48189736
71,75834313.48189739
346,52941599.9999999
993,122509259.99999996
1017,122509259.99999996
1497,352932281.60171416
1533,513194.69713651677
1557,513194.69713651677
2228,8215224.336009165
2366,3142588.434471722
4122,28085331.989970898
4134,16675078.47262941
4171,3545058.6301972984
4231,349276498.4701059
4244,35075.09741426962
4355,0.0
4480,40941.99659830411
2,2, 1, 2, 0,12, 0.00,60.00,Friday
11,288471874.39521637
47,127608335.58369696
71,74666735.58369699
346,52941599.9999999
993,122509259.99999996
1017,122509259.99999996
1497,309752394.07365718
1533,11952079.865633984
1557,11952079.865633984
2228,11747743.482887257
2366,4199484.919880005
4122,26540652.78462641
4134,16872182.615203624
4171,3545058.6301972984
4231,293600829.28814318
4244,30716.42756165189
4355,0.0
4480,35166.11644418027
2,2, 1, 2, 0,13, 0.00,60.00,Friday
11,284636318.3508564
47,125474646.90102881
71,72533046.90102883
346,52941599.9999999
993,122509259.99999996
1017,122509259.99999996
1497,194014211.27306939
1533,11952079.865633984
1557,11952079.865633984
2228,13172731.704956608
2366,4607710.071963365
4122,23429755.7713644
4134,16953673.06726571
4171,3545058.6301972984
4231,177454421.33547203
4244,20753.645381514012
4355,0.0
4480,29170.328125181903
2,2, 1, 2, 0,14, 0.00,60.00,Friday
11,280701696.7564856
47,124574876.94041291
71,71633276.94041293
346,52941599.9999999
993,122509259.99999996
1017,122509259.99999996
1497,92976337.43521765
1533,513194.69713651677
1557,513194.69713651677
2228,11982873.457980372
2366,4372395.241061775
4122,21592276.3061384
4134,17365846.923654289
4171,3545058.6301972984
4231,88090747.49701937
4244,12945.727493340739
4355,0.0
4480,29464.324460618016
2,2, 1, 2, 0,15, 0.00,60.00,Friday
11,279973815.0910284
47,125193274.15726592
71,72251674.15726593
346,52941599.9999999
993,122509259.99999996
1017,122509259.99999996
1497,52922956.01829159
1533,427662.2476137639
1557,427662.2476137639
2228,10483478.726782885
2366,3574698.3732119838
4122,21748364.831810826
4134,17990838.083236673
4171,3545058.6301972984
4231,48920595.39746584
4244,7801.878348184506
4355,0.0
4480,31635.496820649627
2,2, 1, 2, 0,16, 0.00,60.00,Friday
11,282744644.94651249
47,128552970.05184198
71,75611370.05184199
346,52941599.9999999
993,122509259.99999996
1017,122509259.99999996
1497,35796929.27087925
1533,427662.2476137639
1557,427662.2476137639
2228,9235572.60571821
2366,3525631.2043824049
4122,22408724.495247634
4134,18656209.65242044
4171,3545058.6301972984
4231,31843635.818883074
4244,4765.491263812522
4355,0.0
4480,33352.3024409118
2,2, 1, 2, 0,17, 0.00,60.00,Friday
11,285143125.7340462
47,130475579.59582767
71,77533979.5958277
346,52941599.9999999
993,122509259.99999996
1017,122509259.99999996
1497,92941241.2651808
1533,29024875.168857416
1557,29024875.168857416
2228,9651051.832178913
2366,3618816.7543720884
4122,22467193.271171847
4134,18484617.020582316
4171,3545058.6301972984
4231,60297549.341951299
4244,8865.694676940197
4355,0.0
4480,31175.34019090412
2,2, 1, 2, 0,18, 0.00,60.00,Friday
11,274538350.78771069
47,123776342.99999996
71,70834742.99999997
346,52941599.9999999
993,118102859.99999997
1017,118102859.99999997
1497,160797226.3820701
1533,29024875.168857416
1557,29024875.168857416
2228,9770091.748107803
2366,3201191.5137206648
4122,22843128.593713188
4134,17876089.581363594
4171,3545058.6301972984
4231,128571159.699492
4244,17267.526734057785
4355,0.0
4480,28659.91915561599
2,2, 1, 2, 0,19, 0.00,60.00,Friday
11,308696727.0328339
47,143344268.99999986
71,47505068.99999999
346,95839199.99999984
993,135564839.99999989
1017,135564839.99999989
1497,189327294.3399202
1533,28597212.921243654
1557,28597212.921243654
2228,9092406.951830263
2366,3001734.647925129
4122,20637341.36758019
4134,16794014.47565822
4171,3545058.6301972984
4231,157728346.77075143
4244,27376.885312015598
4355,0.0
4480,30492.828111667473
2,2, 1, 2, 0,20, 0.00,60.00,Friday
11,362828077.4161282
47,171942668.99999974
71,47505068.99999999
346,124437599.9999998
993,164163239.99999974
1017,164163239.99999974
1497,155308343.55610643
1533,0.0
1557,0.0
2228,6404211.734824467
2366,2495045.8330755599
4122,20259414.20654141
4134,16670902.511884083
4171,3545058.6301972984
4231,152813297.72303088
4244,27611.97594682717
4355,0.0
4480,30930.49881585595
2,2, 1, 2, 0,21, 0.00,60.00,Friday
11,377308686.4472836
47,180270629.9999997
71,41533829.999999988
346,138736799.9999998
993,169616699.99999974
1017,169616699.99999974
1497,170703530.9879126
1533,0.0
1557,0.0
2228,7140597.731595798
2366,2530909.5536413358
4122,20215980.219895185
4134,16633320.45790584
4171,3545058.6301972984
4231,168172621.43427126
4244,31016.913179611474
4355,0.0
4480,33761.5826132908
2,2, 1, 2, 0,22, 0.00,60.00,Friday
11,294592848.7406652
47,143777915.9999998
71,19340315.999999998
346,124437599.9999998
993,132085079.9999998
1017,132085079.9999998
1497,63605127.97139138
1533,0.0
1557,0.0
2228,4641742.328603592
2366,1975343.4367334913
4122,14047748.9617544
4134,10430414.969861363
4171,3545058.6301972984
4231,61629784.53465789
4244,10742.964171603224
4355,0.0
4480,29618.486135878604
2,2, 1, 2, 0,23, 0.00,60.00,Friday
11,204332546.1457453
47,96788438.99999984
71,5971238.999999999
346,90817199.99999984
993,90768869.99999985
1017,90768869.99999985
1497,64378511.65049441
1533,0.0
1557,0.0
2228,2759087.285306633
2366,1425591.882718747
4122,13975473.60005866
4134,10430414.969861363
4171,3545058.6301972984
4231,62952919.76777566
4244,11271.122744491186
4355,0.0
4480,29405.137635721883
2,2, 1, 2, 0,24, 0.00,60.00,Friday
11,116297646.35192807
47,52754678.99999992
71,4835078.999999999
346,47919599.99999992
993,47320469.999999929
1017,47320469.999999929
1497,67593018.14500326
1533,0.0
1557,0.0
2228,2205978.7798913407
2366,1240652.945506609
4122,13975473.60005866
4134,10430414.969861363
4171,3545058.6301972984
4231,66352365.19949666
4244,11879.761182000802
4355,0.0
4480,29165.21079608307
2,3, 1, 3, 0, 1, 0.00,60.00,Saturday
11,56668301.401451047
47,24156278.99999996
71,4835078.999999999
346,19321199.999999968
993,18722069.99999997
1017,18722069.99999997
1497,1335478.2766043847
1533,0.0
1557,0.0
2228,1756815.4378353395
2366,1335478.2766043847
4122,12033136.963615733
4134,8488078.333418435
4171,3545058.6301972984
4231,0.0
4244,0.0
4355,0.0
4480,0.0
2,3, 1, 3, 0, 2, 0.00,60.00,Saturday
11,57279741.77585168
47,24156278.99999996
71,4835078.999999999
346,19321199.999999968
993,18722069.99999997
1017,18722069.99999997
1497,1328442.637187822
1533,0.0
1557,0.0
2228,2368255.812235984
2366,1328442.637187822
4122,12033136.963615733
4134,8488078.333418435
4171,3545058.6301972984
4231,0.0
4244,0.0
4355,0.0
4480,0.0
2,3, 1, 3, 0, 3, 0.00,60.00,Saturday
11,56527651.30613165
47,24156278.99999996
71,4835078.999999999
346,19321199.999999968
993,18722069.99999997
1017,18722069.99999997
1497,1336077.914352954
1533,0.0
1557,0.0
2228,1615216.6092967264
2366,1314805.5614027205
4122,12034085.696834956
4134,8488078.333418435
4171,3545058.6301972984
4231,21272.35295023347
4244,0.0
4355,0.0
4480,0.0
2,3, 1, 3, 0, 4, 0.00,60.00,Saturday
11,56625392.05731416
47,24156278.99999996
71,4835078.999999999
346,19321199.999999968
993,18722069.99999997
1017,18722069.99999997
1497,3915974.0755305408
1533,0.0
1557,0.0
2228,1587812.5076588973
2366,1040784.3522151234
4122,12159230.549655289
4134,8488078.333418435
4171,3545058.6301972984
4231,2875189.7233154179
4244,0.0
4355,0.0
4480,0.0
2,3, 1, 3, 0, 5, 0.00,60.00,Saturday
11,57123275.611866239
47,24156278.99999996
71,4835078.999999999
346,19321199.999999968
993,18722069.99999997
1017,18722069.99999997
1497,15080587.782808334
1533,0.0
1557,0.0
2228,1587643.0498810276
2366,1041115.0204960744
4122,12657283.561985242
4134,8488078.333418435
4171,3545058.6301972984
4231,14039472.76231226
4244,0.0
4355,0.0
4480,0.0
2,3, 1, 3, 0, 6, 0.00,60.00,Saturday
11,117716631.96770954
47,52754678.99999992
71,4835078.999999999
346,47919599.99999992
993,47320469.999999929
1017,47320469.999999929
1497,198618373.43355824
1533,0.0
1557,0.0
2228,793992.646333285
2366,1309930.7632162339
4122,16633167.734873426
4134,12234208.312055333
4171,3545058.6301972984
4231,197308442.670342
4244,34518.22770832213
4355,0.0
4480,179804.3587945389
2,3, 1, 3, 0, 7, 0.00,60.00,Saturday
11,203421331.68612597
47,80361638.99999988
71,5971238.999999999
346,74390399.99999988
993,69320069.9999999
1017,69320069.9999999
1497,1055193836.1279318
1533,28597212.921243654
1557,28597212.921243654
2228,1601351.8824603484
2366,1222149.189881349
4122,50828924.34992427
4134,20650340.893753694
4171,3545058.630197298
4231,1025374474.0168069
4244,107876.13269972857
4355,0.0
4480,1201470.3210417876
2,3, 1, 3, 0, 8, 0.00,60.00,Saturday
11,197357129.85353465
47,83681716.29360229
71,9291316.293602404
346,74390399.99999988
993,73192139.99999988
1017,73192139.99999988
1497,754469603.8805913
1533,28597212.921243654
1557,28597212.921243654
2228,4507448.480187195
2366,1806203.431032355
4122,35244440.104706268
4134,16737864.87212044
4171,3545058.6301972984
4231,724066187.5283153
4244,94608.72253751436
4355,0.0
4480,636776.252501414
2,3, 1, 3, 0, 9, 0.00,60.00,Saturday
11,226724553.25972463
47,101608701.87187383
71,27218301.87187397
346,74390399.99999988
993,90883619.99999987
1017,90883619.99999987
1497,537049636.6571227
1533,285108.16507584266
1557,285108.16507584266
2228,4689147.475749966
2366,2056741.356817321
4122,29155913.966639867
4134,16633320.45790584
4171,3545058.6301972984
4231,534707787.13522949
4244,76968.00812524706
4355,0.0
4480,310201.93733567526
2,3, 1, 3, 0,10, 0.00,60.00,Saturday
11,265657151.05107583
47,119120512.56192014
71,44730112.56192027
346,74390399.99999988
993,114116039.99999988
1017,114116039.99999988
1497,409973854.8115438
1533,285108.16507584266
1557,285108.16507584266
2228,5803328.6992509
2366,2429606.761181829
4122,26406486.958779217
4134,16647449.946455569
4171,3545058.630197298
4231,407259139.88528618
4244,58153.24284164689
4355,0.0
4480,152629.58828390004
2,3, 1, 3, 0,11, 0.00,60.00,Saturday
11,268286361.0400526
47,117599968.66389919
71,64658368.66389921
346,52941599.9999999
993,115899659.99999997
1017,115899659.99999997
1497,372714618.3519826
1533,513194.69713651677
1557,513194.69713651677
2228,8626560.78269101
2366,2984391.325359269
4122,26007961.215748945
4134,16730627.225933075
4171,3545058.630197298
4231,369217032.32948687
4244,50731.86547956793
4355,0.0
4480,101478.51223393117
2,3, 1, 3, 0,12, 0.00,60.00,Saturday
11,269008248.91402485
47,117115843.4583424
71,64174243.45834242
346,52941599.9999999
993,115899659.99999997
1017,115899659.99999997
1497,313050791.4528595
1533,11952079.865633984
1557,11952079.865633984
2228,11386658.12972337
2366,3642546.261607374
4122,24503272.695652144
4134,17023856.417070968
4171,3545058.6301972984
4231,297456165.32561817
4244,41925.69238286952
4355,0.0
4480,60888.93792406132
2,3, 1, 3, 0,13, 0.00,60.00,Saturday
11,262829674.20853795
47,113196905.75203634
71,60255305.752036359
346,52941599.9999999
993,114247259.99999997
1017,114247259.99999997
1497,256385655.4111414
1533,11952079.865633984
1557,11952079.865633984
2228,11590900.212451725
2366,3708121.535821069
4122,23719130.622813636
4134,17595620.11446937
4171,3545058.6301972984
4231,240725454.0096863
4244,34926.46119370507
4355,0.0
4480,40551.160042634816
2,3, 1, 3, 0,14, 0.00,60.00,Saturday
11,264111308.27939645
47,113312831.04575908
71,60371231.0457591
346,52941599.9999999
993,114247259.99999997
1017,114247259.99999997
1497,208482036.52683557
1533,513194.69713651677
1557,513194.69713651677
2228,12836936.000361179
2366,3741563.773652599
4122,23586545.910244347
4134,18253922.12224292
4171,3545058.6301972984
4231,204227278.05604644
4244,30122.937771337474
4355,64095.445131749504
4480,33516.940128801565
2,3, 1, 3, 0,15, 0.00,60.00,Saturday
11,263298826.43782223
47,114295195.01920848
71,61353595.019208509
346,52941599.9999999
993,114247259.99999997
1017,114247259.99999997
1497,187670600.66886343
1533,427662.2476137639
1557,427662.2476137639
2228,10250468.659005162
2366,3134249.7506889009
4122,23909115.877024928
4134,18893112.79953533
4171,3545058.6301972984
4231,184108688.67056079
4244,27310.99791314521
4355,538339.5449485065
4480,31136.339722064902
2,3, 1, 3, 0,16, 0.00,60.00,Saturday
11,262580574.17218227
47,113480953.86090067
71,60539353.86090069
346,52941599.9999999
993,114247259.99999997
1017,114247259.99999997
1497,197561196.54859288
1533,427662.2476137639
1557,427662.2476137639
2228,9939455.54665778
2366,3043009.3169493435
4122,24489100.42887198
4134,19297279.513240003
4171,3545058.6301972984
4231,194090524.98402975
4244,28346.42095997983
4355,363387.5731325886
4480,32070.34165930781
2,3, 1, 3, 0,17, 0.00,60.00,Saturday
11,266579736.03537483
47,117645370.8848575
71,64703770.88485752
346,52941599.9999999
993,114247259.99999997
1017,114247259.99999997
1497,262663307.16204966
1533,29024875.168857416
1557,29024875.168857416
2228,9616517.329090642
2366,3040410.412817415
4122,24999240.50275797
4134,19298845.659492583
4171,3545058.6301972984
4231,230598021.58037479
4244,33400.664052228494
4355,0.0
4480,37946.65461653689
2,3, 1, 3, 0,18, 0.00,60.00,Saturday
11,260096647.43276657
47,111937382.99999996
71,64017782.99999998
346,47919599.99999992
993,113145659.99999997
1017,113145659.99999997
1497,329395389.9342993
1533,28597212.921243654
1557,28597212.921243654
2228,9268574.187284412
2366,2960589.704837039
4122,25649911.733741635
4134,18409034.145569739
4171,3545058.630197298
4231,297837587.3082186
4244,41382.90544384929
4355,0.0
4480,53735.606296744445
2,3, 1, 3, 0,19, 0.00,60.00,Saturday
11,285766788.6251089
47,128942549.99999987
71,38125349.999999988
346,90817199.99999984
993,125066699.99999988
1017,125066699.99999988
1497,349603650.6965258
1533,28597212.921243654
1557,28597212.921243654
2228,8788121.361143826
2366,2923146.320149954
4122,22807407.892457926
4134,16637941.904025754
4171,3545058.6301972984
4231,318083291.45513227
4244,52768.91057430804
4355,0.0
4480,109240.46093306662
2,3, 1, 3, 0,20, 0.00,60.00,Saturday
11,308327501.4681308
47,142745273.9999998
71,23329673.999999994
346,119415599.9999998
993,138176819.9999998
1017,138176819.9999998
1497,242740510.67390669
1533,0.0
1557,0.0
2228,7465149.628454391
2366,2471447.1775887545
4122,19831991.695250129
4134,14690983.821462907
4171,3545058.6301972984
4231,240269063.49631796
4244,39268.72756468192
4355,0.0
4480,68997.41686181896
2,3, 1, 3, 0,21, 0.00,60.00,Saturday
11,335487655.991848
47,157044473.99999977
71,23329673.999999994
346,133714799.99999979
993,152476019.99999977
1017,152476019.99999977
1497,269434221.06213966
1533,0.0
1557,0.0
2228,5924674.705526686
2366,2074870.1541547552
4122,19899807.947604356
4134,14690983.821462907
4171,3545058.6301972984
4231,267359350.9079849
4244,45614.279871357576
4355,0.0
4480,97065.05884591851
2,3, 1, 3, 0,22, 0.00,60.00,Saturday
11,276658988.420364
47,127949597.9999998
71,8533997.999999999
346,119415599.9999998
993,122688539.9999998
1017,122688539.9999998
1497,342010500.8738649
1533,0.0
1557,0.0