Program Version,EnergyPlus, Version 9.0.1-bb7ca4f0da, YMD=2019.11.06 14:30
1,5,Environment Title[],Latitude[deg],Longitude[deg],Time Zone[],Elevation[m]
2,8,Day of Simulation[],Month[],Day of Month[],DST Indicator[1=yes 0=no],Hour[],StartMinute[],EndMinute[],DayType
3,5,Cumulative Day of Simulation[],Month[],Day of Month[],DST Indicator[1=yes 0=no],DayType  ! When Daily Meters Requested
4,2,Cumulative Days of Simulation[],Month[]  ! When Monthly Meters Requested
5,1,Cumulative Days of Simulation[] ! When Run Period Meters Requested
6,1,Calendar Year of Simulation[] ! When Annual Meters Requested
968,1,Cooling:Electricity [J] !Hourly
47,1,InteriorLights:Electricity [J] !Hourly
11,1,Electricity:Facility [J] !Hourly
1069,1,Pumps:Electricity [J] !Hourly
184,1,InteriorEquipment:Electricity [J] !Hourly
914,1,Fans:Electricity [J] !Hourly
1039,1,Heating:Electricity [J] !Hourly
334,1,WaterSystems:Electricity [J] !Hourly
1002,1,Gas:Facility [J] !Hourly
1026,1,Heating:Gas [J] !Hourly
208,1,Receptacle:InteriorEquipment:Electricity [J] !Hourly
71,1,ComplianceLtg:InteriorLights:Electricity [J] !Hourly
End of Data Dictionary
1,SACRAMENTO-EXECUTIVE_724830_CZ2010,  38.50,-121.50,  -8.00,   5.00
2,1, 1, 1, 0, 1, 0.00,60.00,Holiday
11,9550568.504260248
47,594224.1902879989
71,594224.1902879989
184,1485560.4757199924
208,1485560.4757199924
334,0.0
914,7337687.61901277
968,133096.219239487
1002,2314509.79407382
1026,2314509.79407382
1039,0.0
1069,0.0
2,1, 1, 1, 0, 2, 0.00,60.00,Holiday
11,9094243.142080933
47,594224.1902879989
71,594224.1902879989
184,1485560.4757199924
208,1485560.4757199924
334,0.0
914,6927432.667886631
968,87025.80818631004
1002,2128125.119464639
1026,2128125.119464639
1039,0.0
1069,0.0
2,1, 1, 1, 0, 3, 0.00,60.00,Holiday
11,8844048.75781991
47,594224.1902879989
71,594224.1902879989
184,1485560.4757199924
208,1485560.4757199924
334,0.0
914,6689754.30231324
968,74509.78949867755
1002,1907871.5649820367
1026,1907871.5649820367
1039,0.0
1069,0.0
2,1, 1, 1, 0, 4, 0.00,60.00,Holiday
11,8857716.563618433
47,594224.1902879989
71,594224.1902879989
184,1485560.4757199924
208,1485560.4757199924
334,0.0
914,6689754.30231324
968,88177.59529720186
1002,1788801.3682565564
1026,1788801.3682565564
1039,0.0
1069,0.0
2,1, 1, 1, 0, 5, 0.00,60.00,Holiday
11,10906677.179765165
47,594224.1902879989
71,594224.1902879989
184,1485560.4757199924
208,1485560.4757199924
334,952867.9965351659
914,7769279.313603545
968,104745.20361846194
1002,1518061.9001242172
1026,1518061.9001242172
1039,0.0
1069,0.0
2,1, 1, 1, 0, 6, 0.00,60.00,Holiday
11,15395372.417843083
47,594224.1902879989
71,594224.1902879989
184,1485560.4757199924
208,1485560.4757199924
334,0.0
914,13209323.456959358
968,106264.29487573379
1002,6470276.601678895
1026,6470276.601678895
1039,0.0
1069,0.0
2,1, 1, 1, 0, 7, 0.00,60.00,Holiday
11,15289108.12296735
47,594224.1902879989
71,594224.1902879989
184,1485560.4757199924
208,1485560.4757199924
334,0.0
914,13209323.456959358
968,0.0
1002,4830192.079216173
1026,4830192.079216173
1039,0.0
1069,0.0
2,1, 1, 1, 0, 8, 0.00,60.00,Holiday
11,16241956.515813496
47,594224.1902879989
71,594224.1902879989
184,1485560.4757199924
208,1485560.4757199924
334,952848.3928461489
914,13209323.456959358
968,0.0
1002,5950652.467963073
1026,5950652.467963073
1039,0.0
1069,0.0
2,1, 1, 1, 0, 9, 0.00,60.00,Holiday
11,15289108.12296735
47,594224.1902879989
71,594224.1902879989
184,1485560.4757199924
208,1485560.4757199924
334,0.0
914,13209323.456959358
968,0.0
1002,5989937.926022967
1026,5989937.926022967
1039,0.0
1069,0.0
2,1, 1, 1, 0,10, 0.00,60.00,Holiday
11,15289108.12296735
47,594224.1902879989
71,594224.1902879989
184,1485560.4757199924
208,1485560.4757199924
334,0.0
914,13209323.456959358
968,0.0
1002,6255052.441870018
1026,6255052.441870018
1039,0.0
1069,0.0
2,1, 1, 1, 0,11, 0.00,60.00,Holiday
11,15289108.12296735
47,594224.1902879989
71,594224.1902879989
184,1485560.4757199924
208,1485560.4757199924
334,0.0
914,13209323.456959358
968,0.0
1002,5959921.028395088
1026,5959921.028395088
1039,0.0
1069,0.0
2,1, 1, 1, 0,12, 0.00,60.00,Holiday
11,16244151.882442713
47,594224.1902879989
71,594224.1902879989
184,1485560.4757199924
208,1485560.4757199924
334,955043.7594753646
914,13209323.456959358
968,0.0
1002,5567842.8307728529
1026,5567842.8307728529
1039,0.0
1069,0.0
2,1, 1, 1, 0,13, 0.00,60.00,Holiday
11,15289108.12296735
47,594224.1902879989
71,594224.1902879989
184,1485560.4757199924
208,1485560.4757199924
334,0.0
914,13209323.456959358
968,0.0
1002,5114943.234792764
1026,5114943.234792764
1039,0.0
1069,0.0
2,1, 1, 1, 0,14, 0.00,60.00,Holiday
11,15289108.12296735
47,594224.1902879989
71,594224.1902879989
184,1485560.4757199924
208,1485560.4757199924
334,0.0
914,13209323.456959358
968,0.0
1002,2706798.9521509029
1026,2706798.9521509029
1039,0.0
1069,0.0
2,1, 1, 1, 0,15, 0.00,60.00,Holiday
11,16244148.517418351
47,594224.1902879989
71,594224.1902879989
184,1485560.4757199924
208,1485560.4757199924
334,955040.3944510022
914,13209323.456959358
968,0.0
1002,1636505.47107598
1026,1636505.47107598
1039,0.0
1069,0.0
2,1, 1, 1, 0,16, 0.00,60.00,Holiday
11,15289108.12296735
47,594224.1902879989
71,594224.1902879989
184,1485560.4757199924
208,1485560.4757199924
334,0.0
914,13209323.456959358
968,0.0
1002,1535114.701739275
1026,1535114.701739275
1039,0.0
1069,0.0
2,1, 1, 1, 0,17, 0.00,60.00,Holiday
11,15289108.12296735
47,594224.1902879989
71,594224.1902879989
184,1485560.4757199924
208,1485560.4757199924
334,0.0
914,13209323.456959358
968,0.0
1002,1289770.8231245233
1026,1289770.8231245233
1039,0.0
1069,0.0
2,1, 1, 1, 0,18, 0.00,60.00,Holiday
11,15289108.12296735
47,594224.1902879989
71,594224.1902879989
184,1485560.4757199924
208,1485560.4757199924
334,0.0
914,13209323.456959358
968,0.0
1002,1145214.150889255
1026,1145214.150889255
1039,0.0
1069,0.0
2,1, 1, 1, 0,19, 0.00,60.00,Holiday
11,9471350.93612035
47,594224.1902879989
71,594224.1902879989
184,1485560.4757199924
208,1485560.4757199924
334,952868.1314060355
914,6342740.139581474
968,95957.99912484811
1002,1414332.755506798
1026,1414332.755506798
1039,0.0
1069,0.0
2,1, 1, 1, 0,20, 0.00,60.00,Holiday
11,8997751.800486703
47,594224.1902879989
71,594224.1902879989
184,1485560.4757199924
208,1485560.4757199924
334,0.0
914,6876728.944993248
968,41238.189485461786
1002,2199550.355746083
1026,2199550.355746083
1039,0.0
1069,0.0
2,1, 1, 1, 0,21, 0.00,60.00,Holiday
11,9210827.289208847
47,594224.1902879989
71,594224.1902879989
184,1485560.4757199924
208,1485560.4757199924
334,0.0
914,7025062.307221182
968,105980.31597967212
1002,1607931.7543393109
1026,1607931.7543393109
1039,0.0
1069,0.0
2,1, 1, 1, 0,22, 0.00,60.00,Holiday
11,10654376.264472057
47,594224.1902879989
71,594224.1902879989
184,1485560.4757199924
208,1485560.4757199924
334,956121.6487337703
914,7497212.097089976
968,121257.85264032048
1002,687436.2493751887
1026,687436.2493751887
1039,0.0
1069,0.0
2,1, 1, 1, 0,23, 0.00,60.00,Holiday
11,9097110.406373783
47,594224.1902879989
71,594224.1902879989
184,1485560.4757199924
208,1485560.4757199924
334,0.0
914,6927432.667886632
968,89893.0724791601
1002,2217301.4017294447
1026,2217301.4017294447
1039,0.0
1069,0.0
2,1, 1, 1, 0,24, 0.00,60.00,Holiday
11,9100811.685797546
47,594224.1902879989
71,594224.1902879989
184,1485560.4757199924
208,1485560.4757199924
334,0.0
914,6927432.667886632
968,93594.35190292468
1002,2522020.9826548548
1026,2522020.9826548548
1039,0.0
1069,0.0
2,2, 1, 2, 0, 1, 0.00,60.00,Friday
11,9109097.520594739
47,594224.1902879989
71,594224.1902879989
184,1485560.4757199924
208,1485560.4757199924
334,0.0
914,6927432.667886632
968,101880.18670011751
1002,2828317.674416641
1026,2828317.674416641
1039,0.0
1069,0.0
2,2, 1, 2, 0, 2, 0.00,60.00,Friday
11,10898018.360607332
47,594224.1902879989
71,594224.1902879989
184,1485560.4757199924
208,1485560.4757199924
334,953941.8056104794
914,7734890.462663366
968,129401.42632549512
1002,2439295.4584259439
1026,2439295.4584259439
1039,0.0
1069,0.0
2,2, 1, 2, 0, 3, 0.00,60.00,Friday
11,10760917.603588129
47,594224.1902879989
71,594224.1902879989
184,1485560.4757199924
208,1485560.4757199924
334,0.0
914,8542348.257440104
968,138784.6801400361
1002,1986839.9830523576
1026,1986839.9830523576
1039,0.0
1069,0.0
2,2, 1, 2, 0, 4, 0.00,60.00,Friday
11,10354034.316922993
47,594224.1902879989
71,594224.1902879989
184,1485560.4757199924
208,1485560.4757199924
334,0.0
914,8132093.306313964
968,142156.34460103763
1002,1906093.5845993993
1026,1906093.5845993993
1039,0.0
1069,0.0
2,2, 1, 2, 0, 5, 0.00,60.00,Friday
11,10445572.261456935
47,594224.1902879989
71,594224.1902879989
184,1485560.4757199924
208,1485560.4757199924
334,0.0
914,8265972.788214963
968,99814.80723398156
1002,1244845.1009337989
1026,1244845.1009337989
1039,0.0
1069,0.0
2,2, 1, 2, 0, 6, 0.00,60.00,Friday
11,18325944.43997989
47,1188448.3805759978
71,1188448.3805759978
184,2971120.9514399848
208,2971120.9514399848
334,957051.6510045487
914,13209323.45695936
968,0.0
1002,132151790.91298881
1026,132151790.91298881
1039,0.0
1069,0.0
2,2, 1, 2, 0, 7, 0.00,60.00,Friday
11,17368892.788975344
47,1188448.3805759978
71,1188448.3805759978
184,2971120.9514399848
208,2971120.9514399848
334,0.0
914,13209323.456959358
968,0.0
1002,113826949.19032789
1026,113826949.19032789
1039,0.0
1069,0.0
2,2, 1, 2, 0, 8, 0.00,60.00,Friday
11,26657427.96739219
47,3565345.141727993
71,3565345.141727993
184,8913362.854319955
208,8913362.854319955
334,969396.5143848849
914,13209323.456959358
968,0.0
1002,90925837.7392727
1026,90925837.7392727
1039,0.0
1069,0.0
2,2, 1, 2, 0, 9, 0.00,60.00,Friday
11,48662017.38157393
47,7724914.473743984
71,7724914.473743984
184,26740088.562959859
208,26740088.562959859
334,987690.8879107306
914,13209323.456959358
968,0.0
1002,46899163.41813325
1026,46899163.41813325
1039,0.0
1069,0.0
2,2, 1, 2, 0,10, 0.00,60.00,Friday
11,49656818.38538244
47,7724914.473743984
71,7724914.473743984
184,26740088.562959859
208,26740088.562959859
334,1982491.8917192398
914,13209323.456959358
968,0.0
1002,39082975.37863429
1026,39082975.37863429
1039,0.0
1069,0.0
2,2, 1, 2, 0,11, 0.00,60.00,Friday
11,48666604.71868933
47,7724914.473743984
71,7724914.473743984
184,26740088.562959859
208,26740088.562959859
334,992278.2250261334
914,13209323.456959358
968,0.0
1002,32697242.272151736
1026,32697242.272151736
1039,0.0
1069,0.0
2,2, 1, 2, 0,12, 0.00,60.00,Friday
11,49678048.04503728
47,7724914.473743984
71,7724914.473743984
184,26740088.562959859
208,26740088.562959859
334,2003721.5513740793
914,13209323.456959358
968,0.0
1002,27580308.678139487
1026,27580308.678139487
1039,0.0
1069,0.0
2,2, 1, 2, 0,13, 0.00,60.00,Friday
11,49702134.217330548
47,7724914.473743984
71,7724914.473743984
184,26740088.562959859
208,26740088.562959859
334,2027807.723667345
914,13209323.456959358
968,0.0
1002,27131279.794589838
1026,27131279.794589838
1039,0.0
1069,0.0
2,2, 1, 2, 0,14, 0.00,60.00,Friday
11,49694929.93873076
47,7724914.473743984
71,7724914.473743984
184,26740088.562959859
208,26740088.562959859
334,2020603.4450675625
914,13209323.456959358
968,0.0
1002,15006056.892225579
1026,15006056.892225579
1039,0.0
1069,0.0
2,2, 1, 2, 0,15, 0.00,60.00,Friday
11,49647224.88676372
47,7724914.473743984
71,7724914.473743984
184,26740088.562959859
208,26740088.562959859
334,1972898.3931005225
914,13209323.456959358
968,0.0
1002,7863667.234848391
1026,7863667.234848391
1039,0.0
1069,0.0
2,2, 1, 2, 0,16, 0.00,60.00,Friday
11,48659596.35261812
47,7724914.473743984
71,7724914.473743984
184,26740088.562959859
208,26740088.562959859
334,985269.8589549252
914,13209323.456959358
968,0.0
1002,3633174.4394583816
1026,3633174.4394583816
1039,0.0
1069,0.0
2,2, 1, 2, 0,17, 0.00,60.00,Friday
11,49670755.19697591
47,7724914.473743984
71,7724914.473743984
184,26740088.562959859
208,26740088.562959859
334,1996428.7033127149
914,13209323.456959358
968,0.0
1002,4125640.003183513
1026,4125640.003183513
1039,0.0
1069,0.0
2,2, 1, 2, 0,18, 0.00,60.00,Friday
11,33201784.133369849
47,4159569.3320159919
71,4159569.3320159919
184,14855604.757199923
208,14855604.757199923
334,977286.5871945743
914,13209323.456959358
968,0.0
1002,31639485.49343171
1026,31639485.49343171
1039,0.0
1069,0.0
2,2, 1, 2, 0,19, 0.00,60.00,Friday
11,25688031.453007305
47,3565345.141727993
71,3565345.141727993
184,8913362.854319955
208,8913362.854319955
334,0.0
914,13209323.456959358
968,0.0
1002,46007649.73689392
1026,46007649.73689392
1039,0.0
1069,0.0
2,2, 1, 2, 0,20, 0.00,60.00,Friday
11,26653005.5185946
47,3565345.141727993
71,3565345.141727993
184,8913362.854319955
208,8913362.854319955
334,964974.0655872953
914,13209323.456959358
968,0.0
1002,49784029.95136221
1026,49784029.95136221
1039,0.0
1069,0.0
2,2, 1, 2, 0,21, 0.00,60.00,Friday
11,22495415.073367176
47,2376896.7611519957
71,2376896.7611519957
184,5942241.902879969
208,5942241.902879969
334,966952.9523758546
914,13209323.456959358
968,0.0
1002,60423712.03197394
1026,60423712.03197394
1039,0.0
1069,0.0
2,2, 1, 2, 0,22, 0.00,60.00,Friday
11,21528462.12099132
47,2376896.7611519957
71,2376896.7611519957
184,5942241.902879969
208,5942241.902879969
334,0.0
914,13209323.456959358
968,0.0
1002,63197497.03322643
1026,63197497.03322643
1039,0.0
1069,0.0
2,2, 1, 2, 0,23, 0.00,60.00,Friday
11,18322834.9635115
47,1188448.3805759978
71,1188448.3805759978
184,2971120.9514399848
208,2971120.9514399848
334,953942.1745361581
914,13209323.456959358
968,0.0
1002,71645273.33415677
1026,71645273.33415677
1039,0.0
1069,0.0
2,2, 1, 2, 0,24, 0.00,60.00,Friday
11,15289108.12296735
47,594224.1902879989
71,594224.1902879989
184,1485560.4757199924
208,1485560.4757199924
334,0.0
914,13209323.456959358
968,0.0
1002,78575613.76597835
1026,78575613.76597835
1039,0.0
1069,0.0
2,3, 1, 3, 0, 1, 0.00,60.00,Saturday
11,2079784.6660079912
47,594224.1902879989
71,594224.1902879989
184,1485560.4757199924
208,1485560.4757199924
334,0.0
914,0.0
968,0.0
1002,0.0
1026,0.0
1039,0.0
1069,0.0
2,3, 1, 3, 0, 2, 0.00,60.00,Saturday
11,2079784.6660079912
47,594224.1902879989
71,594224.1902879989
184,1485560.4757199924
208,1485560.4757199924
334,0.0
914,0.0
968,0.0
1002,0.0
1026,0.0
1039,0.0
1069,0.0
2,3, 1, 3, 0, 3, 0.00,60.00,Saturday
11,3033720.9272873105
47,594224.1902879989
71,594224.1902879989
184,1485560.4757199924
208,1485560.4757199924
334,953936.2612793191
914,0.0
968,0.0
1002,0.0
1026,0.0
1039,0.0
1069,0.0
2,3, 1, 3, 0, 4, 0.00,60.00,Saturday
11,2079784.6660079912
47,594224.1902879989
71,594224.1902879989
184,1485560.4757199924
208,1485560.4757199924
334,0.0
914,0.0
968,0.0
1002,0.0
1026,0.0
1039,0.0
1069,0.0
2,3, 1, 3, 0, 5, 0.00,60.00,Saturday
11,2079784.6660079912
47,594224.1902879989
71,594224.1902879989
184,1485560.4757199924
208,1485560.4757199924
334,0.0
914,0.0
968,0.0
1002,0.0
1026,0.0
1039,0.0
1069,0.0
2,3, 1, 3, 0, 6, 0.00,60.00,Saturday
11,16246344.536976129
47,594224.1902879989
71,594224.1902879989
184,1485560.4757199924
208,1485560.4757199924
334,957236.414008781
914,13209323.456959358
968,0.0
1002,128456407.14779201
1026,128456407.14779201
1039,0.0
1069,0.0
2,3, 1, 3, 0, 7, 0.00,60.00,Saturday
11,17368892.788975344
47,1188448.3805759978
71,1188448.3805759978
184,2971120.9514399848
208,2971120.9514399848
334,0.0
914,13209323.456959358
968,0.0
1002,105002410.23851362
1026,105002410.23851362
1039,0.0
1069,0.0
2,3, 1, 3, 0, 8, 0.00,60.00,Saturday
11,17900730.323972286
47,1188448.3805759978
71,1188448.3805759978
184,2971120.9514399848
208,2971120.9514399848
334,531837.5349969412
914,13209323.456959358
968,0.0
1002,99339012.38430685
1026,99339012.38430685
1039,0.0
1069,0.0
2,3, 1, 3, 0, 9, 0.00,60.00,Saturday
11,26118494.159065308
47,3565345.141727993
71,3565345.141727993
184,8913362.854319955
208,8913362.854319955
334,430462.70605800495
914,13209323.456959358
968,0.0
1002,77173569.8503309
1026,77173569.8503309
1039,0.0
1069,0.0
2,3, 1, 3, 0,10, 0.00,60.00,Saturday
11,26659652.106922077
47,3565345.141727993
71,3565345.141727993
184,8913362.854319955
208,8913362.854319955
334,971620.6539147678
914,13209323.456959358
968,0.0
1002,60554696.853439647
1026,60554696.853439647
1039,0.0
1069,0.0
2,3, 1, 3, 0,11, 0.00,60.00,Saturday
11,26657438.976303407
47,3565345.141727993
71,3565345.141727993
184,8913362.854319955
208,8913362.854319955
334,969407.5232961023
914,13209323.456959358
968,0.0
1002,43334945.834744978
1026,43334945.834744978
1039,0.0
1069,0.0
2,3, 1, 3, 0,12, 0.00,60.00,Saturday
11,26661952.47789853
47,3565345.141727993
71,3565345.141727993
184,8913362.854319955
208,8913362.854319955
334,973921.0248912289
914,13209323.456959358
968,0.0
1002,29593284.680768528
1026,29593284.680768528
1039,0.0
1069,0.0
2,3, 1, 3, 0,13, 0.00,60.00,Saturday
11,20419186.72783404
47,1782672.5708639965
71,1782672.5708639965
184,4456681.427159977
208,4456681.427159977
334,970509.2728507109
914,13209323.456959358
968,0.0
1002,30621111.566757978
1026,30621111.566757978
1039,0.0
1069,0.0
2,3, 1, 3, 0,14, 0.00,60.00,Saturday
11,19448677.45498333
47,1782672.5708639965
71,1782672.5708639965
184,4456681.427159977
208,4456681.427159977
334,0.0
914,13209323.456959358
968,0.0
1002,25650353.01910945
1026,25650353.01910945
1039,0.0
1069,0.0
2,3, 1, 3, 0,15, 0.00,60.00,Saturday
11,20413587.828763367
47,1782672.5708639965
71,1782672.5708639965
184,4456681.427159977
208,4456681.427159977
334,964910.3737800366
914,13209323.456959358
968,0.0
1002,22852988.944960163
1026,22852988.944960163
1039,0.0
1069,0.0
2,3, 1, 3, 0,16, 0.00,60.00,Saturday
11,20410303.125670289
47,1782672.5708639965
71,1782672.5708639965
184,4456681.427159977
208,4456681.427159977
334,961625.6706869576
914,13209323.456959358
968,0.0
1002,23121468.857004454
1026,23121468.857004454
1039,0.0
1069,0.0
2,3, 1, 3, 0,17, 0.00,60.00,Saturday
11,19448677.45498333
47,1782672.5708639965
71,1782672.5708639965
184,4456681.427159977
208,4456681.427159977
334,0.0
914,13209323.456959358
968,0.0
1002,27273242.89411944
1026,27273242.89411944
1039,0.0
1069,0.0
2,3, 1, 3, 0,18, 0.00,60.00,Saturday
11,16245248.12913428
47,594224.1902879989
71,594224.1902879989
184,1485560.4757199924
208,1485560.4757199924
334,956140.00616693
914,13209323.456959358
968,0.0
1002,40172945.89556539
1026,40172945.89556539
1039,0.0
1069,0.0
2,3, 1, 3, 0,19, 0.00,60.00,Saturday
11,15289108.12296735
47,594224.1902879989
71,594224.1902879989
184,1485560.4757199924
208,1485560.4757199924
334,0.0
914,13209323.456959358
968,0.0
1002,46801006.293365079
1026,46801006.293365079
1039,0.0
1069,0.0
2,3, 1, 3, 0,20, 0.00,60.00,Saturday
11,2079784.6660079912
47,594224.1902879989
71,594224.1902879989
184,1485560.4757199924
208,1485560.4757199924
334,0.0
914,0.0
968,0.0
1002,0.0
1026,0.0
1039,0.0
1069,0.0
2,3, 1, 3, 0,21, 0.00,60.00,Saturday
11,3035913.0393628824
47,594224.1902879989
71,594224.1902879989
184,1485560.4757199924
208,1485560.4757199924
334,956128.3733548911
914,0.0
968,0.0
1002,0.0
1026,0.0
1039,0.0
1069,0.0
2,3, 1, 3, 0,22, 0.00,60.00,Saturday
11,2079784.6660079912
47,594224.1902879989
71,594224.1902879989
184,1485560.4757199924
208,1485560.4757199924
334,0.0
914,0.0
968,0.0
1002,0.0
1026,0.0
1039,0.0
1069,0.0
2,3, 1, 3, 0,23, 0.00,60.00,Saturday
11,2079784.6660079912
47,594224.1902879989
71,594224.1902879989
184,1485560.4757199924
208,1485560.4757199924
334,0.0
914,0.0
968,0.0
1002,0.0
1026,0.0
1039,0.0
1069,0.0
2,3, 1, 3, 0,24, 0.00,60.00,Saturday
11,3033703.488668673
47,594224.1902879989
71,594224.1902879989
184,1485560.4757199924
208,1485560.4757199924
334,953918.822660682
914,0.0
968,0.0
1002,0.0
1026,0.0
1039,0.0
1069,0.0
2,4, 1, 4, 0, 1, 0.00,60.00,Sunday
11,2079784.6660079912
47,594224.1902879989
71,594224.1902879989
184,1485560.4757199924
208,1485560.4757199924
334,0.0
914,0.0
968,0.0
1002,0.0
1026,0.0
1039,0.0
1069,0.0
2,4, 1, 4, 0, 2, 0.00,60.00,Sunday
11,2079784.6660079912
47,594224.1902879989
71,594224.1902879989
184,1485560.4757199924
208,1485560.4757199924
334,0.0
914,0.0
968,0.0
1002,0.0
1026,0.0
1039,0.0
1069,0.0
2,4, 1, 4, 0, 3, 0.00,60.00,Sunday
11,2079784.6660079912
47,594224.1902879989
71,594224.1902879989
184,1485560.4757199924
208,1485560.4757199924
334,0.0
914,0.0
968,0.0
1002,0.0
1026,0.0
1039,0.0
1069,0.0
2,4, 1, 4, 0, 4, 0.00,60.00,Sunday
11,3032624.4818109755
47,594224.1902879989
71,594224.1902879989
184,1485560.4757199924
208,1485560.4757199924
334,952839.8158029839
914,0.0
968,0.0
1002,0.0
1026,0.0
1039,0.0
1069,0.0
2,4, 1, 4, 0, 5, 0.00,60.00,Sunday
11,2079784.6660079912
47,594224.1902879989
71,594224.1902879989
184,1485560.4757199924
208,1485560.4757199924
334,0.0
914,0.0
968,0.0
1002,0.0
1026,0.0
1039,0.0
1069,0.0
2,4, 1, 4, 0, 6, 0.00,60.00,Sunday
11,15324322.92095732
47,594224.1902879989
71,594224.1902879989
184,1485560.4757199924
208,1485560.4757199924
334,0.0
914,13209323.456959358
968,35214.79798997045
1002,10480852.460125559
1026,10480852.460125559
1039,0.0
1069,0.0
2,4, 1, 4, 0, 7, 0.00,60.00,Sunday
11,15289108.12296735
47,594224.1902879989
71,594224.1902879989
184,1485560.4757199924
208,1485560.4757199924
334,0.0
914,13209323.456959358
968,0.0
1002,17038211.169608758
1026,17038211.169608758
1039,0.0
1069,0.0
2,4, 1, 4, 0, 8, 0.00,60.00,Sunday
11,16241975.836280028
47,594224.1902879989
71,594224.1902879989
184,1485560.4757199924
208,1485560.4757199924
334,952867.7133126793
914,13209323.456959358
968,0.0
1002,21211478.429140647
1026,21211478.429140647
1039,0.0
1069,0.0
2,4, 1, 4, 0, 9, 0.00,60.00,Sunday
11,15289108.12296735
47,594224.1902879989
71,594224.1902879989
184,1485560.4757199924
208,1485560.4757199924
334,0.0
914,13209323.456959358
968,0.0
1002,19005823.990576239
1026,19005823.990576239
1039,0.0
1069,0.0
2,4, 1, 4, 0,10, 0.00,60.00,Sunday
11,15289108.12296735
47,594224.1902879989
71,594224.1902879989
184,1485560.4757199924
208,1485560.4757199924
334,0.0
914,13209323.456959358
968,0.0
1002,10156787.9734421
1026,10156787.9734421
1039,0.0
1069,0.0
2,4, 1, 4, 0,11, 0.00,60.00,Sunday
11,15334996.410919659
47,594224.1902879989
71,594224.1902879989
184,1485560.4757199924
208,1485560.4757199924
334,0.0
914,13209323.456959358
968,45888.28795231
1002,3504154.555148296
1026,3504154.555148296
1039,0.0
1069,0.0
2,4, 1, 4, 0,12, 0.00,60.00,Sunday
11,16297275.994108659
47,594224.1902879989
71,594224.1902879989
184,1485560.4757199924
208,1485560.4757199924
334,955033.8542829246
914,13209323.456959358
968,53134.0168583856
1002,668185.2633415319
1026,668185.2633415319
1039,0.0
1069,0.0
2,4, 1, 4, 0,13, 0.00,60.00,Sunday
11,15337267.649311956
47,594224.1902879989
71,594224.1902879989
184,1485560.4757199924
208,1485560.4757199924
334,0.0
914,13209323.456959358
968,48159.52634460792
1002,0.0
1026,0.0
1039,0.0
1069,0.0
2,4, 1, 4, 0,14, 0.00,60.00,Sunday
11,16360697.711107862
47,594224.1902879989
71,594224.1902879989
184,1485560.4757199924
208,1485560.4757199924
334,958294.6850191299
914,13209323.456959358
968,113294.90312138175
1002,0.0
1026,0.0
1039,0.0
1069,0.0
2,4, 1, 4, 0,15, 0.00,60.00,Sunday
11,15359721.27183989
47,594224.1902879989
71,594224.1902879989
184,1485560.4757199924
208,1485560.4757199924
334,0.0
914,13209323.456959358
968,70613.14887254176
1002,0.0
1026,0.0
1039,0.0
1069,0.0
2,4, 1, 4, 0,16, 0.00,60.00,Sunday
11,15311194.024456803
47,594224.1902879989
71,594224.1902879989
184,1485560.4757199924
208,1485560.4757199924
334,0.0
914,13209323.456959358
968,22085.901489454307
1002,0.0
1026,0.0
1039,0.0
1069,0.0
2,4, 1, 4, 0,17, 0.00,60.00,Sunday
11,15289108.12296735
47,594224.1902879989
71,594224.1902879989
184,1485560.4757199924
208,1485560.4757199924
334,0.0
914,13209323.456959358
968,0.0
1002,345339.39487751576
1026,345339.39487751576
1039,0.0
1069,0.0
2,4, 1, 4, 0,18, 0.00,60.00,Sunday
11,16241969.165217694
47,594224.1902879989
71,594224.1902879989
184,1485560.4757199924
208,1485560.4757199924
334,952861.0422503457
914,13209323.456959358
968,0.0
1002,743192.1313365669
1026,743192.1313365669
1039,0.0
1069,0.0
2,4, 1, 4, 0,19, 0.00,60.00,Sunday
11,2079784.6660079912
47,594224.1902879989
71,594224.1902879989
184,1485560.4757199924
208,1485560.4757199924
334,0.0
914,0.0
968,0.0
1002,0.0
1026,0.0
1039,0.0
1069,0.0
2,4, 1, 4, 0,20, 0.00,60.00,Sunday
11,2079784.6660079912
47,594224.1902879989
71,594224.1902879989
184,1485560.4757199924
208,1485560.4757199924
334,0.0
914,0.0
968,0.0
1002,0.0
1026,0.0
1039,0.0
1069,0.0
2,4, 1, 4, 0,21, 0.00,60.00,Sunday
11,2079784.6660079912
47,594224.1902879989
71,594224.1902879989
184,1485560.4757199924
208,1485560.4757199924
334,0.0
914,0.0
968,0.0
1002,0.0
1026,0.0
1039,0.0
1069,0.0
2,4, 1, 4, 0,22, 0.00,60.00,Sunday
11,3035879.0615287187
47,594224.1902879989
71,594224.1902879989
184,1485560.4757199924
208,1485560.4757199924
334,956094.395520727
914,0.0
968,0.0
1002,0.0
1026,0.0
1039,0.0
1069,0.0
2,4, 1, 4, 0,23, 0.00,60.00,Sunday
11,2764681.1476650766
47,594224.1902879989
71,594224.1902879989
184,1485560.4757199924
208,1485560.4757199924
334,0.0
914,667924.1105124487
968,16972.37114463642
1002,0.0
1026,0.0
1039,0.0
1069,0.0
2,4, 1, 4, 0,24, 0.00,60.00,Sunday
11,3254539.7909831989
47,594224.1902879989
71,594224.1902879989
184,1485560.4757199924
208,1485560.4757199924
334,0.0
914,1143280.8416592295
968,31474.283315978086
1002,0.0
1026,0.0
1039,0.0
1069,0.0
2,5, 1, 5, 0, 1, 0.00,60.00,Monday
11,3556855.8169339096
47,594224.1902879989
71,594224.1902879989
184,1485560.4757199924
208,1485560.4757199924
334,0.0
914,1449736.9091129776
968,27334.241812940934
1002,33363.32115600518
1026,33363.32115600518
1039,0.0
1069,0.0
2,5, 1, 5, 0, 2, 0.00,60.00,Monday
11,4763292.992069346
47,594224.1902879989
71,594224.1902879989
184,1485560.4757199924
208,1485560.4757199924
334,953943.7578453906
914,1687415.274686368
968,42149.29352959574
1002,0.0
1026,0.0
1039,0.0
1069,0.0
2,5, 1, 5, 0, 3, 0.00,60.00,Monday
11,5179487.273377668
47,594224.1902879989
71,594224.1902879989
184,1485560.4757199924
208,1485560.4757199924
334,0.0
914,3040868.494116511
968,58834.1132531659
1002,125282.67759054728
1026,125282.67759054728
1039,0.0
1069,0.0
2,5, 1, 5, 0, 4, 0.00,60.00,Monday
11,4468957.345813862
47,594224.1902879989
71,594224.1902879989
184,1485560.4757199924
208,1485560.4757199924
334,0.0
914,2355339.3851988168
968,33833.29460705446
1002,185918.32245777313
1026,185918.32245777313
1039,0.0
1069,0.0
2,5, 1, 5, 0, 5, 0.00,60.00,Monday
11,5918484.469568516
47,594224.1902879989
71,594224.1902879989
184,1485560.4757199924
208,1485560.4757199924
334,953758.1069086946
914,2865084.9672857767
968,19856.72936605362
1002,165535.26555057334
1026,165535.26555057334
1039,0.0
1069,0.0
2,5, 1, 5, 0, 6, 0.00,60.00,Monday
11,17368892.788975344
47,1188448.3805759978
71,1188448.3805759978
184,2971120.9514399848
208,2971120.9514399848
334,0.0
914,13209323.45695936
968,0.0
1002,121851899.91785506
1026,121851899.91785506
1039,0.0
1069,0.0
2,5, 1, 5, 0, 7, 0.00,60.00,Monday
11,17368892.788975344
47,1188448.3805759978
71,1188448.3805759978
184,2971120.9514399848
208,2971120.9514399848
334,0.0
914,13209323.456959358
968,0.0
1002,104798708.68772137
1026,104798708.68772137
1039,0.0
1069,0.0
2,5, 1, 5, 0, 8, 0.00,60.00,Monday
11,26657384.426679084
47,3565345.141727993
71,3565345.141727993
184,8913362.854319955
208,8913362.854319955
334,969352.9736717783
914,13209323.456959358
968,0.0
1002,87754235.74536962
1026,87754235.74536962
1039,0.0
1069,0.0
2,5, 1, 5, 0, 9, 0.00,60.00,Monday
11,49608292.65076056
47,7724914.473743984
71,7724914.473743984
184,26740088.562959859
208,26740088.562959859
334,1933966.1570973579
914,13209323.456959358
968,0.0
1002,43699078.96742312
1026,43699078.96742312
1039,0.0
1069,0.0
2,5, 1, 5, 0,10, 0.00,60.00,Monday
11,48706676.572926
47,7724914.473743984
71,7724914.473743984
184,26740088.562959859
208,26740088.562959859
334,1032350.079262799
914,13209323.456959358
968,0.0
1002,26633457.215553505
1026,26633457.215553505
1039,0.0
1069,0.0
2,5, 1, 5, 0,11, 0.00,60.00,Monday
11,49157568.97944652
47,7724914.473743984
71,7724914.473743984
184,26740088.562959859
208,26740088.562959859
334,1461299.8682671986
914,13209323.456959358
968,21942.61751612505
1002,13331226.817504747
1026,13331226.817504747
1039,0.0
1069,0.0
2,5, 1, 5, 0,12, 0.00,60.00,Monday
11,49238665.84764734
47,7724914.473743984
71,7724914.473743984
184,26740088.562959859
208,26740088.562959859
334,1530339.38840326
914,13209323.456959358
968,33999.96558088334
1002,5112551.332149911
1026,5112551.332149911
1039,0.0
1069,0.0
2,5, 1, 5, 0,13, 0.00,60.00,Monday
11,49741756.26332443
47,7724914.473743984
71,7724914.473743984
184,26740088.562959859
208,26740088.562959859
334,2028063.8712792295
914,13209323.456959358
968,39365.89838199777
1002,2701088.2284199434
1026,2701088.2284199434
1039,0.0
1069,0.0
2,5, 1, 5, 0,14, 0.00,60.00,Monday
11,49841339.05859504
47,7724914.473743984
71,7724914.473743984
184,26740088.562959859
208,26740088.562959859
334,2020857.249521597
914,13209323.456959358
968,146155.31541024173
1002,113814.27531358098
1026,113814.27531358098
1039,0.0
1069,0.0
2,5, 1, 5, 0,15, 0.00,60.00,Monday
11,49849958.24981426
47,7724914.473743984
71,7724914.473743984
184,26740088.562959859
208,26740088.562959859
334,1973147.0290255738
914,13209323.456959358
968,202484.7271254902
1002,0.0
1026,0.0
1039,0.0
1069,0.0
2,5, 1, 5, 0,16, 0.00,60.00,Monday
11,48839925.64449663
47,7724914.473743984
71,7724914.473743984
184,26740088.562959859
208,26740088.562959859
334,985393.9861857214
914,13209323.456959358
968,180205.16464771087
1002,0.0
1026,0.0
1039,0.0
1069,0.0
2,5, 1, 5, 0,17, 0.00,60.00,Monday
11,49680784.16715481
47,7724914.473743984
71,7724914.473743984
184,26740088.562959859
208,26740088.562959859
334,1996679.141248335
914,13209323.456959358
968,9778.532243280497
1002,0.0
1026,0.0
1039,0.0
1069,0.0
2,5, 1, 5, 0,18, 0.00,60.00,Monday
11,33234477.43971069
47,4159569.3320159919
71,4159569.3320159919
184,14855604.757199923
208,14855604.757199923
334,977152.4082721311
914,13209323.456959358
968,32827.48526328739
1002,5001051.20744502
1026,5001051.20744502
1039,0.0
1069,0.0
2,5, 1, 5, 0,19, 0.00,60.00,Monday
11,26659686.195402504
47,3565345.141727993
71,3565345.141727993
184,8913362.854319955
208,8913362.854319955
334,971654.7423951989
914,13209323.456959358
968,0.0
1002,20829172.372729657
1026,20829172.372729657
1039,0.0