Program Version,EnergyPlus, Version 9.0.1-bb7ca4f0da, YMD=2019.12.18 16:58
1,5,Environment Title[],Latitude[deg],Longitude[deg],Time Zone[],Elevation[m]
2,8,Day of Simulation[],Month[],Day of Month[],DST Indicator[1=yes 0=no],Hour[],StartMinute[],EndMinute[],DayType
3,5,Cumulative Day of Simulation[],Month[],Day of Month[],DST Indicator[1=yes 0=no],DayType  ! When Daily Report Variables Requested
4,2,Cumulative Days of Simulation[],Month[]  ! When Monthly Report Variables Requested
5,1,Cumulative Days of Simulation[] ! When Run Period Report Variables Requested
6,1,Calendar Year of Simulation[] ! When Annual Report Variables Requested
7,1,Environment,Site Outdoor Air Drybulb Temperature [C] !TimeStep
4438,1,BASE BLR,Boiler Heating Rate [W] !Hourly
End of Data Dictionary
1,RED-BLUFF-MUNICIPAL-ARPT ANN CLG 0.4% CONDNS DB=>MCWB,  40.15,-122.25,  -8.00, 106.00
2,1, 7,21, 0, 1, 0.00,15.00,SummerDesignDay
7,26.588500000000005
2,1, 7,21, 0, 1,15.00,30.00,SummerDesignDay
7,26.335000000000006
2,1, 7,21, 0, 1,30.00,45.00,SummerDesignDay
7,26.081500000000007
2,1, 7,21, 0, 1,45.00,60.00,SummerDesignDay
7,25.828000000000004
2,1, 7,21, 0, 1, 0.00,60.00,SummerDesignDay
4438,0.0
2,1, 7,21, 0, 2, 0.00,15.00,SummerDesignDay
7,25.659000000000007
2,1, 7,21, 0, 2,15.00,30.00,SummerDesignDay
7,25.490000000000003
2,1, 7,21, 0, 2,30.00,45.00,SummerDesignDay
7,25.321000000000006
2,1, 7,21, 0, 2,45.00,60.00,SummerDesignDay
7,25.152
2,1, 7,21, 0, 2, 0.00,60.00,SummerDesignDay
4438,0.0
2,1, 7,21, 0, 3, 0.00,15.00,SummerDesignDay
7,25.025250000000008
2,1, 7,21, 0, 3,15.00,30.00,SummerDesignDay
7,24.898500000000007
2,1, 7,21, 0, 3,30.00,45.00,SummerDesignDay
7,24.771750000000006
2,1, 7,21, 0, 3,45.00,60.00,SummerDesignDay
7,24.645000000000008
2,1, 7,21, 0, 3, 0.00,60.00,SummerDesignDay
4438,0.0
2,1, 7,21, 0, 4, 0.00,15.00,SummerDesignDay
7,24.518250000000007
2,1, 7,21, 0, 4,15.00,30.00,SummerDesignDay
7,24.391500000000005
2,1, 7,21, 0, 4,30.00,45.00,SummerDesignDay
7,24.264750000000008
2,1, 7,21, 0, 4,45.00,60.00,SummerDesignDay
7,24.138000000000007
2,1, 7,21, 0, 4, 0.00,60.00,SummerDesignDay
4438,0.0
2,1, 7,21, 0, 5, 0.00,15.00,SummerDesignDay
7,24.053500000000004
2,1, 7,21, 0, 5,15.00,30.00,SummerDesignDay
7,23.969000000000006
2,1, 7,21, 0, 5,30.00,45.00,SummerDesignDay
7,23.884500000000004
2,1, 7,21, 0, 5,45.00,60.00,SummerDesignDay
7,23.800000000000006
2,1, 7,21, 0, 5, 0.00,60.00,SummerDesignDay
4438,0.0
2,1, 7,21, 0, 6, 0.00,15.00,SummerDesignDay
7,23.884500000000004
2,1, 7,21, 0, 6,15.00,30.00,SummerDesignDay
7,23.969000000000006
2,1, 7,21, 0, 6,30.00,45.00,SummerDesignDay
7,24.053500000000004
2,1, 7,21, 0, 6,45.00,60.00,SummerDesignDay
7,24.138000000000007
2,1, 7,21, 0, 6, 0.00,60.00,SummerDesignDay
4438,0.0
2,1, 7,21, 0, 7, 0.00,15.00,SummerDesignDay
7,24.433750000000005
2,1, 7,21, 0, 7,15.00,30.00,SummerDesignDay
7,24.7295
2,1, 7,21, 0, 7,30.00,45.00,SummerDesignDay
7,25.025250000000008
2,1, 7,21, 0, 7,45.00,60.00,SummerDesignDay
7,25.321000000000006
2,1, 7,21, 0, 7, 0.00,60.00,SummerDesignDay
4438,0.0
2,1, 7,21, 0, 8, 0.00,15.00,SummerDesignDay
7,26.039250000000004
2,1, 7,21, 0, 8,15.00,30.00,SummerDesignDay
7,26.757500000000009
2,1, 7,21, 0, 8,30.00,45.00,SummerDesignDay
7,27.475750000000006
2,1, 7,21, 0, 8,45.00,60.00,SummerDesignDay
7,28.194000000000004
2,1, 7,21, 0, 8, 0.00,60.00,SummerDesignDay
4438,0.0
2,1, 7,21, 0, 9, 0.00,15.00,SummerDesignDay
7,28.996750000000007
2,1, 7,21, 0, 9,15.00,30.00,SummerDesignDay
7,29.799500000000003
2,1, 7,21, 0, 9,30.00,45.00,SummerDesignDay
7,30.602250000000006
2,1, 7,21, 0, 9,45.00,60.00,SummerDesignDay
7,31.405
2,1, 7,21, 0, 9, 0.00,60.00,SummerDesignDay
4438,0.0
2,1, 7,21, 0,10, 0.00,15.00,SummerDesignDay
7,32.12325
2,1, 7,21, 0,10,15.00,30.00,SummerDesignDay
7,32.8415
2,1, 7,21, 0,10,30.00,45.00,SummerDesignDay
7,33.55975
2,1, 7,21, 0,10,45.00,60.00,SummerDesignDay
7,34.278000000000009
2,1, 7,21, 0,10, 0.00,60.00,SummerDesignDay
4438,0.0
2,1, 7,21, 0,11, 0.00,15.00,SummerDesignDay
7,34.911750000000008
2,1, 7,21, 0,11,15.00,30.00,SummerDesignDay
7,35.545500000000007
2,1, 7,21, 0,11,30.00,45.00,SummerDesignDay
7,36.17925
2,1, 7,21, 0,11,45.00,60.00,SummerDesignDay
7,36.813
2,1, 7,21, 0,11, 0.00,60.00,SummerDesignDay
4438,0.0
2,1, 7,21, 0,12, 0.00,15.00,SummerDesignDay
7,37.2355
2,1, 7,21, 0,12,15.00,30.00,SummerDesignDay
7,37.658
2,1, 7,21, 0,12,30.00,45.00,SummerDesignDay
7,38.0805
2,1, 7,21, 0,12,45.00,60.00,SummerDesignDay
7,38.503
2,1, 7,21, 0,12, 0.00,60.00,SummerDesignDay
4438,0.0
2,1, 7,21, 0,13, 0.00,15.00,SummerDesignDay
7,38.841
2,1, 7,21, 0,13,15.00,30.00,SummerDesignDay
7,39.179
2,1, 7,21, 0,13,30.00,45.00,SummerDesignDay
7,39.517
2,1, 7,21, 0,13,45.00,60.00,SummerDesignDay
7,39.855000000000007
2,1, 7,21, 0,13, 0.00,60.00,SummerDesignDay
4438,0.0
2,1, 7,21, 0,14, 0.00,15.00,SummerDesignDay
7,40.066250000000007
2,1, 7,21, 0,14,15.00,30.00,SummerDesignDay
7,40.2775
2,1, 7,21, 0,14,30.00,45.00,SummerDesignDay
7,40.48875
2,1, 7,21, 0,14,45.00,60.00,SummerDesignDay
7,40.7
2,1, 7,21, 0,14, 0.00,60.00,SummerDesignDay
4438,0.0
2,1, 7,21, 0,15, 0.00,15.00,SummerDesignDay
7,40.7
2,1, 7,21, 0,15,15.00,30.00,SummerDesignDay
7,40.7
2,1, 7,21, 0,15,30.00,45.00,SummerDesignDay
7,40.7
2,1, 7,21, 0,15,45.00,60.00,SummerDesignDay
7,40.7
2,1, 7,21, 0,15, 0.00,60.00,SummerDesignDay
4438,0.0
2,1, 7,21, 0,16, 0.00,15.00,SummerDesignDay
7,40.4465
2,1, 7,21, 0,16,15.00,30.00,SummerDesignDay
7,40.193000000000008
2,1, 7,21, 0,16,30.00,45.00,SummerDesignDay
7,39.9395
2,1, 7,21, 0,16,45.00,60.00,SummerDesignDay
7,39.686
2,1, 7,21, 0,16, 0.00,60.00,SummerDesignDay
4438,0.0
2,1, 7,21, 0,17, 0.00,15.00,SummerDesignDay
7,39.348000000000009
2,1, 7,21, 0,17,15.00,30.00,SummerDesignDay
7,39.010000000000008
2,1, 7,21, 0,17,30.00,45.00,SummerDesignDay
7,38.672000000000007
2,1, 7,21, 0,17,45.00,60.00,SummerDesignDay
7,38.334
2,1, 7,21, 0,17, 0.00,60.00,SummerDesignDay
4438,0.0
2,1, 7,21, 0,18, 0.00,15.00,SummerDesignDay
7,37.911500000000007
2,1, 7,21, 0,18,15.00,30.00,SummerDesignDay
7,37.489000000000007
2,1, 7,21, 0,18,30.00,45.00,SummerDesignDay
7,37.066500000000008
2,1, 7,21, 0,18,45.00,60.00,SummerDesignDay
7,36.644000000000009
2,1, 7,21, 0,18, 0.00,60.00,SummerDesignDay
4438,0.0
2,1, 7,21, 0,19, 0.00,15.00,SummerDesignDay
7,36.010250000000009
2,1, 7,21, 0,19,15.00,30.00,SummerDesignDay
7,35.37650000000001
2,1, 7,21, 0,19,30.00,45.00,SummerDesignDay
7,34.74275
2,1, 7,21, 0,19,45.00,60.00,SummerDesignDay
7,34.109
2,1, 7,21, 0,19, 0.00,60.00,SummerDesignDay
4438,0.0
2,1, 7,21, 0,20, 0.00,15.00,SummerDesignDay
7,33.64425000000001
2,1, 7,21, 0,20,15.00,30.00,SummerDesignDay
7,33.179500000000007
2,1, 7,21, 0,20,30.00,45.00,SummerDesignDay
7,32.71475
2,1, 7,21, 0,20,45.00,60.00,SummerDesignDay
7,32.25
2,1, 7,21, 0,20, 0.00,60.00,SummerDesignDay
4438,0.0
2,1, 7,21, 0,21, 0.00,15.00,SummerDesignDay
7,31.869750000000005
2,1, 7,21, 0,21,15.00,30.00,SummerDesignDay
7,31.489500000000008
2,1, 7,21, 0,21,30.00,45.00,SummerDesignDay
7,31.109250000000004
2,1, 7,21, 0,21,45.00,60.00,SummerDesignDay
7,30.729000000000008
2,1, 7,21, 0,21, 0.00,60.00,SummerDesignDay
4438,0.0
2,1, 7,21, 0,22, 0.00,15.00,SummerDesignDay
7,30.348750000000004
2,1, 7,21, 0,22,15.00,30.00,SummerDesignDay
7,29.968500000000007
2,1, 7,21, 0,22,30.00,45.00,SummerDesignDay
7,29.588250000000003
2,1, 7,21, 0,22,45.00,60.00,SummerDesignDay
7,29.208000000000007
2,1, 7,21, 0,22, 0.00,60.00,SummerDesignDay
4438,0.0
2,1, 7,21, 0,23, 0.00,15.00,SummerDesignDay
7,28.912250000000005
2,1, 7,21, 0,23,15.00,30.00,SummerDesignDay
7,28.616500000000003
2,1, 7,21, 0,23,30.00,45.00,SummerDesignDay
7,28.320750000000005
2,1, 7,21, 0,23,45.00,60.00,SummerDesignDay
7,28.025000000000007
2,1, 7,21, 0,23, 0.00,60.00,SummerDesignDay
4438,0.0
2,1, 7,21, 0,24, 0.00,15.00,SummerDesignDay
7,27.729250000000005
2,1, 7,21, 0,24,15.00,30.00,SummerDesignDay
7,27.433500000000007
2,1, 7,21, 0,24,30.00,45.00,SummerDesignDay
7,27.137750000000005
2,1, 7,21, 0,24,45.00,60.00,SummerDesignDay
7,26.842000000000007
2,1, 7,21, 0,24, 0.00,60.00,SummerDesignDay
4438,0.0
1,RED-BLUFF-MUNICIPAL-ARPT ANN CLG 0.4% CONDNS DP=>MCDB,  40.15,-122.25,  -8.00, 106.00
2,1, 7,21, 0, 1, 0.00,15.00,SummerDesignDay
7,13.388500000000003
2,1, 7,21, 0, 1,15.00,30.00,SummerDesignDay
7,13.135000000000002
2,1, 7,21, 0, 1,30.00,45.00,SummerDesignDay
7,12.8815
2,1, 7,21, 0, 1,45.00,60.00,SummerDesignDay
7,12.628000000000002
2,1, 7,21, 0, 1, 0.00,60.00,SummerDesignDay
4438,25.22337004332098
2,1, 7,21, 0, 2, 0.00,15.00,SummerDesignDay
7,12.459000000000002
2,1, 7,21, 0, 2,15.00,30.00,SummerDesignDay
7,12.290000000000001
2,1, 7,21, 0, 2,30.00,45.00,SummerDesignDay
7,12.121
2,1, 7,21, 0, 2,45.00,60.00,SummerDesignDay
7,11.952
2,1, 7,21, 0, 2, 0.00,60.00,SummerDesignDay
4438,1859.0520217112167
2,1, 7,21, 0, 3, 0.00,15.00,SummerDesignDay
7,11.825250000000003
2,1, 7,21, 0, 3,15.00,30.00,SummerDesignDay
7,11.698500000000001
2,1, 7,21, 0, 3,30.00,45.00,SummerDesignDay
7,11.571750000000004
2,1, 7,21, 0, 3,45.00,60.00,SummerDesignDay
7,11.445000000000004
2,1, 7,21, 0, 3, 0.00,60.00,SummerDesignDay
4438,4386.654373316969
2,1, 7,21, 0, 4, 0.00,15.00,SummerDesignDay
7,11.318250000000003
2,1, 7,21, 0, 4,15.00,30.00,SummerDesignDay
7,11.191500000000002
2,1, 7,21, 0, 4,30.00,45.00,SummerDesignDay
7,11.064750000000004
2,1, 7,21, 0, 4,45.00,60.00,SummerDesignDay
7,10.938000000000003
2,1, 7,21, 0, 4, 0.00,60.00,SummerDesignDay
4438,6783.1730378165079
2,1, 7,21, 0, 5, 0.00,15.00,SummerDesignDay
7,10.8535
2,1, 7,21, 0, 5,15.00,30.00,SummerDesignDay
7,10.769000000000002
2,1, 7,21, 0, 5,30.00,45.00,SummerDesignDay
7,10.6845
2,1, 7,21, 0, 5,45.00,60.00,SummerDesignDay
7,10.600000000000002
2,1, 7,21, 0, 5, 0.00,60.00,SummerDesignDay
4438,8552.232315782247
2,1, 7,21, 0, 6, 0.00,15.00,SummerDesignDay
7,10.6845
2,1, 7,21, 0, 6,15.00,30.00,SummerDesignDay
7,10.769000000000002
2,1, 7,21, 0, 6,30.00,45.00,SummerDesignDay
7,10.8535
2,1, 7,21, 0, 6,45.00,60.00,SummerDesignDay
7,10.938000000000003
2,1, 7,21, 0, 6, 0.00,60.00,SummerDesignDay
4438,6590.835622814066
2,1, 7,21, 0, 7, 0.00,15.00,SummerDesignDay
7,11.23375
2,1, 7,21, 0, 7,15.00,30.00,SummerDesignDay
7,11.5295
2,1, 7,21, 0, 7,30.00,45.00,SummerDesignDay
7,11.825250000000003
2,1, 7,21, 0, 7,45.00,60.00,SummerDesignDay
7,12.121
2,1, 7,21, 0, 7, 0.00,60.00,SummerDesignDay
4438,107.76535736568764
2,1, 7,21, 0, 8, 0.00,15.00,SummerDesignDay
7,12.839250000000002
2,1, 7,21, 0, 8,15.00,30.00,SummerDesignDay
7,13.557500000000003
2,1, 7,21, 0, 8,30.00,45.00,SummerDesignDay
7,14.275750000000003
2,1, 7,21, 0, 8,45.00,60.00,SummerDesignDay
7,14.994000000000002
2,1, 7,21, 0, 8, 0.00,60.00,SummerDesignDay
4438,0.0
2,1, 7,21, 0, 9, 0.00,15.00,SummerDesignDay
7,15.796750000000003
2,1, 7,21, 0, 9,15.00,30.00,SummerDesignDay
7,16.5995
2,1, 7,21, 0, 9,30.00,45.00,SummerDesignDay
7,17.402250000000003
2,1, 7,21, 0, 9,45.00,60.00,SummerDesignDay
7,18.205
2,1, 7,21, 0, 9, 0.00,60.00,SummerDesignDay
4438,0.0
2,1, 7,21, 0,10, 0.00,15.00,SummerDesignDay
7,18.92325
2,1, 7,21, 0,10,15.00,30.00,SummerDesignDay
7,19.6415
2,1, 7,21, 0,10,30.00,45.00,SummerDesignDay
7,20.35975
2,1, 7,21, 0,10,45.00,60.00,SummerDesignDay
7,21.078
2,1, 7,21, 0,10, 0.00,60.00,SummerDesignDay
4438,0.0
2,1, 7,21, 0,11, 0.00,15.00,SummerDesignDay
7,21.711750000000003
2,1, 7,21, 0,11,15.00,30.00,SummerDesignDay
7,22.3455
2,1, 7,21, 0,11,30.00,45.00,SummerDesignDay
7,22.97925
2,1, 7,21, 0,11,45.00,60.00,SummerDesignDay
7,23.613
2,1, 7,21, 0,11, 0.00,60.00,SummerDesignDay
4438,0.0
2,1, 7,21, 0,12, 0.00,15.00,SummerDesignDay
7,24.0355
2,1, 7,21, 0,12,15.00,30.00,SummerDesignDay
7,24.458
2,1, 7,21, 0,12,30.00,45.00,SummerDesignDay
7,24.8805
2,1, 7,21, 0,12,45.00,60.00,SummerDesignDay
7,25.303
2,1, 7,21, 0,12, 0.00,60.00,SummerDesignDay
4438,0.0
2,1, 7,21, 0,13, 0.00,15.00,SummerDesignDay
7,25.641000000000003
2,1, 7,21, 0,13,15.00,30.00,SummerDesignDay
7,25.979
2,1, 7,21, 0,13,30.00,45.00,SummerDesignDay
7,26.317
2,1, 7,21, 0,13,45.00,60.00,SummerDesignDay
7,26.655
2,1, 7,21, 0,13, 0.00,60.00,SummerDesignDay
4438,0.0
2,1, 7,21, 0,14, 0.00,15.00,SummerDesignDay
7,26.86625
2,1, 7,21, 0,14,15.00,30.00,SummerDesignDay
7,27.0775
2,1, 7,21, 0,14,30.00,45.00,SummerDesignDay
7,27.28875
2,1, 7,21, 0,14,45.00,60.00,SummerDesignDay
7,27.5
2,1, 7,21, 0,14, 0.00,60.00,SummerDesignDay
4438,0.0
2,1, 7,21, 0,15, 0.00,15.00,SummerDesignDay
7,27.5
2,1, 7,21, 0,15,15.00,30.00,SummerDesignDay
7,27.5
2,1, 7,21, 0,15,30.00,45.00,SummerDesignDay
7,27.5
2,1, 7,21, 0,15,45.00,60.00,SummerDesignDay
7,27.5
2,1, 7,21, 0,15, 0.00,60.00,SummerDesignDay
4438,0.0
2,1, 7,21, 0,16, 0.00,15.00,SummerDesignDay
7,27.2465
2,1, 7,21, 0,16,15.00,30.00,SummerDesignDay
7,26.993
2,1, 7,21, 0,16,30.00,45.00,SummerDesignDay
7,26.7395
2,1, 7,21, 0,16,45.00,60.00,SummerDesignDay
7,26.486
2,1, 7,21, 0,16, 0.00,60.00,SummerDesignDay
4438,0.0
2,1, 7,21, 0,17, 0.00,15.00,SummerDesignDay
7,26.148
2,1, 7,21, 0,17,15.00,30.00,SummerDesignDay
7,25.81
2,1, 7,21, 0,17,30.00,45.00,SummerDesignDay
7,25.472
2,1, 7,21, 0,17,45.00,60.00,SummerDesignDay
7,25.134
2,1, 7,21, 0,17, 0.00,60.00,SummerDesignDay
4438,3.67378768849149
2,1, 7,21, 0,18, 0.00,15.00,SummerDesignDay
7,24.7115
2,1, 7,21, 0,18,15.00,30.00,SummerDesignDay
7,24.289
2,1, 7,21, 0,18,30.00,45.00,SummerDesignDay
7,23.866500000000003
2,1, 7,21, 0,18,45.00,60.00,SummerDesignDay
7,23.444000000000004
2,1, 7,21, 0,18, 0.00,60.00,SummerDesignDay
4438,30.633031579758943
2,1, 7,21, 0,19, 0.00,15.00,SummerDesignDay
7,22.81025
2,1, 7,21, 0,19,15.00,30.00,SummerDesignDay
7,22.1765
2,1, 7,21, 0,19,30.00,45.00,SummerDesignDay
7,21.54275
2,1, 7,21, 0,19,45.00,60.00,SummerDesignDay
7,20.909
2,1, 7,21, 0,19, 0.00,60.00,SummerDesignDay
4438,69.81842093179708
2,1, 7,21, 0,20, 0.00,15.00,SummerDesignDay
7,20.44425
2,1, 7,21, 0,20,15.00,30.00,SummerDesignDay
7,19.9795
2,1, 7,21, 0,20,30.00,45.00,SummerDesignDay
7,19.51475
2,1, 7,21, 0,20,45.00,60.00,SummerDesignDay
7,19.05
2,1, 7,21, 0,20, 0.00,60.00,SummerDesignDay
4438,121.10005824502774
2,1, 7,21, 0,21, 0.00,15.00,SummerDesignDay
7,18.66975
2,1, 7,21, 0,21,15.00,30.00,SummerDesignDay
7,18.289500000000005
2,1, 7,21, 0,21,30.00,45.00,SummerDesignDay
7,17.90925
2,1, 7,21, 0,21,45.00,60.00,SummerDesignDay
7,17.529000000000005
2,1, 7,21, 0,21, 0.00,60.00,SummerDesignDay
4438,169.9688671916936
2,1, 7,21, 0,22, 0.00,15.00,SummerDesignDay
7,17.14875
2,1, 7,21, 0,22,15.00,30.00,SummerDesignDay
7,16.768500000000004
2,1, 7,21, 0,22,30.00,45.00,SummerDesignDay
7,16.38825
2,1, 7,21, 0,22,45.00,60.00,SummerDesignDay
7,16.008000000000004
2,1, 7,21, 0,22, 0.00,60.00,SummerDesignDay
4438,0.0
2,1, 7,21, 0,23, 0.00,15.00,SummerDesignDay
7,15.712250000000001
2,1, 7,21, 0,23,15.00,30.00,SummerDesignDay
7,15.4165
2,1, 7,21, 0,23,30.00,45.00,SummerDesignDay
7,15.120750000000001
2,1, 7,21, 0,23,45.00,60.00,SummerDesignDay
7,14.825000000000001
2,1, 7,21, 0,23, 0.00,60.00,SummerDesignDay
4438,0.0
2,1, 7,21, 0,24, 0.00,15.00,SummerDesignDay
7,14.529250000000001
2,1, 7,21, 0,24,15.00,30.00,SummerDesignDay
7,14.233500000000003
2,1, 7,21, 0,24,30.00,45.00,SummerDesignDay
7,13.937750000000002
2,1, 7,21, 0,24,45.00,60.00,SummerDesignDay
7,13.642000000000002
2,1, 7,21, 0,24, 0.00,60.00,SummerDesignDay
4438,0.0
1,RED-BLUFF-MUNICIPAL-ARPT ANN HTG 99.6% CONDNS DB,  40.15,-122.25,  -8.00, 106.00
2,1, 1,21, 0, 1, 0.00,15.00,WinterDesignDay
7,-1.0
2,1, 1,21, 0, 1,15.00,30.00,WinterDesignDay
7,-1.0
2,1, 1,21, 0, 1,30.00,45.00,WinterDesignDay
7,-1.0
2,1, 1,21, 0, 1,45.00,60.00,WinterDesignDay
7,-1.0
2,1, 1,21, 0, 1, 0.00,60.00,WinterDesignDay
4438,67318.2830195339
2,1, 1,21, 0, 2, 0.00,15.00,WinterDesignDay
7,-1.0
2,1, 1,21, 0, 2,15.00,30.00,WinterDesignDay
7,-1.0
2,1, 1,21, 0, 2,30.00,45.00,WinterDesignDay
7,-1.0
2,1, 1,21, 0, 2,45.00,60.00,WinterDesignDay
7,-1.0
2,1, 1,21, 0, 2, 0.00,60.00,WinterDesignDay
4438,69335.21786818635
2,1, 1,21, 0, 3, 0.00,15.00,WinterDesignDay
7,-1.0
2,1, 1,21, 0, 3,15.00,30.00,WinterDesignDay
7,-1.0
2,1, 1,21, 0, 3,30.00,45.00,WinterDesignDay
7,-1.0
2,1, 1,21, 0, 3,45.00,60.00,WinterDesignDay
7,-1.0
2,1, 1,21, 0, 3, 0.00,60.00,WinterDesignDay
4438,72804.38923375447
2,1, 1,21, 0, 4, 0.00,15.00,WinterDesignDay
7,-1.0
2,1, 1,21, 0, 4,15.00,30.00,WinterDesignDay
7,-1.0
2,1, 1,21, 0, 4,30.00,45.00,WinterDesignDay
7,-1.0
2,1, 1,21, 0, 4,45.00,60.00,WinterDesignDay
7,-1.0
2,1, 1,21, 0, 4, 0.00,60.00,WinterDesignDay
4438,77491.28062275527
2,1, 1,21, 0, 5, 0.00,15.00,WinterDesignDay
7,-1.0
2,1, 1,21, 0, 5,15.00,30.00,WinterDesignDay
7,-1.0
2,1, 1,21, 0, 5,30.00,45.00,WinterDesignDay
7,-1.0
2,1, 1,21, 0, 5,45.00,60.00,WinterDesignDay
7,-1.0
2,1, 1,21, 0, 5, 0.00,60.00,WinterDesignDay
4438,80640.20449277017
2,1, 1,21, 0, 6, 0.00,15.00,WinterDesignDay
7,-1.0
2,1, 1,21, 0, 6,15.00,30.00,WinterDesignDay
7,-1.0
2,1, 1,21, 0, 6,30.00,45.00,WinterDesignDay
7,-1.0
2,1, 1,21, 0, 6,45.00,60.00,WinterDesignDay
7,-1.0
2,1, 1,21, 0, 6, 0.00,60.00,WinterDesignDay
4438,126828.34858008924
2,1, 1,21, 0, 7, 0.00,15.00,WinterDesignDay
7,-1.0
2,1, 1,21, 0, 7,15.00,30.00,WinterDesignDay
7,-1.0
2,1, 1,21, 0, 7,30.00,45.00,WinterDesignDay
7,-1.0
2,1, 1,21, 0, 7,45.00,60.00,WinterDesignDay
7,-1.0
2,1, 1,21, 0, 7, 0.00,60.00,WinterDesignDay
4438,188435.65720986523
2,1, 1,21, 0, 8, 0.00,15.00,WinterDesignDay
7,-1.0
2,1, 1,21, 0, 8,15.00,30.00,WinterDesignDay
7,-1.0
2,1, 1,21, 0, 8,30.00,45.00,WinterDesignDay
7,-1.0
2,1, 1,21, 0, 8,45.00,60.00,WinterDesignDay
7,-1.0
2,1, 1,21, 0, 8, 0.00,60.00,WinterDesignDay
4438,150673.8478279307
2,1, 1,21, 0, 9, 0.00,15.00,WinterDesignDay
7,-1.0
2,1, 1,21, 0, 9,15.00,30.00,WinterDesignDay
7,-1.0
2,1, 1,21, 0, 9,30.00,45.00,WinterDesignDay
7,-1.0
2,1, 1,21, 0, 9,45.00,60.00,WinterDesignDay
7,-1.0
2,1, 1,21, 0, 9, 0.00,60.00,WinterDesignDay
4438,138504.5514336675
2,1, 1,21, 0,10, 0.00,15.00,WinterDesignDay
7,-1.0
2,1, 1,21, 0,10,15.00,30.00,WinterDesignDay
7,-1.0
2,1, 1,21, 0,10,30.00,45.00,WinterDesignDay
7,-1.0
2,1, 1,21, 0,10,45.00,60.00,WinterDesignDay
7,-1.0
2,1, 1,21, 0,10, 0.00,60.00,WinterDesignDay
4438,132563.78791143516
2,1, 1,21, 0,11, 0.00,15.00,WinterDesignDay
7,-1.0
2,1, 1,21, 0,11,15.00,30.00,WinterDesignDay
7,-1.0
2,1, 1,21, 0,11,30.00,45.00,WinterDesignDay
7,-1.0
2,1, 1,21, 0,11,45.00,60.00,WinterDesignDay
7,-1.0
2,1, 1,21, 0,11, 0.00,60.00,WinterDesignDay
4438,129015.43424012466
2,1, 1,21, 0,12, 0.00,15.00,WinterDesignDay
7,-1.0
2,1, 1,21, 0,12,15.00,30.00,WinterDesignDay
7,-1.0
2,1, 1,21, 0,12,30.00,45.00,WinterDesignDay
7,-1.0
2,1, 1,21, 0,12,45.00,60.00,WinterDesignDay
7,-1.0
2,1, 1,21, 0,12, 0.00,60.00,WinterDesignDay
4438,126744.02646661789
2,1, 1,21, 0,13, 0.00,15.00,WinterDesignDay
7,-1.0
2,1, 1,21, 0,13,15.00,30.00,WinterDesignDay
7,-1.0
2,1, 1,21, 0,13,30.00,45.00,WinterDesignDay
7,-1.0
2,1, 1,21, 0,13,45.00,60.00,WinterDesignDay
7,-1.0
2,1, 1,21, 0,13, 0.00,60.00,WinterDesignDay
4438,125126.88074163851
2,1, 1,21, 0,14, 0.00,15.00,WinterDesignDay
7,-1.0
2,1, 1,21, 0,14,15.00,30.00,WinterDesignDay
7,-1.0
2,1, 1,21, 0,14,30.00,45.00,WinterDesignDay
7,-1.0
2,1, 1,21, 0,14,45.00,60.00,WinterDesignDay
7,-1.0
2,1, 1,21, 0,14, 0.00,60.00,WinterDesignDay
4438,123954.04265456635
2,1, 1,21, 0,15, 0.00,15.00,WinterDesignDay
7,-1.0
2,1, 1,21, 0,15,15.00,30.00,WinterDesignDay
7,-1.0
2,1, 1,21, 0,15,30.00,45.00,WinterDesignDay
7,-1.0
2,1, 1,21, 0,15,45.00,60.00,WinterDesignDay
7,-1.0
2,1, 1,21, 0,15, 0.00,60.00,WinterDesignDay
4438,123093.83831166581
2,1, 1,21, 0,16, 0.00,15.00,WinterDesignDay
7,-1.0
2,1, 1,21, 0,16,15.00,30.00,WinterDesignDay
7,-1.0
2,1, 1,21, 0,16,30.00,45.00,WinterDesignDay
7,-1.0
2,1, 1,21, 0,16,45.00,60.00,WinterDesignDay
7,-1.0
2,1, 1,21, 0,16, 0.00,60.00,WinterDesignDay
4438,122474.35297422672
2,1, 1,21, 0,17, 0.00,15.00,WinterDesignDay
7,-1.0
2,1, 1,21, 0,17,15.00,30.00,WinterDesignDay
7,-1.0
2,1, 1,21, 0,17,30.00,45.00,WinterDesignDay
7,-1.0
2,1, 1,21, 0,17,45.00,60.00,WinterDesignDay
7,-1.0
2,1, 1,21, 0,17, 0.00,60.00,WinterDesignDay
4438,121994.95889715338
2,1, 1,21, 0,18, 0.00,15.00,WinterDesignDay
7,-1.0
2,1, 1,21, 0,18,15.00,30.00,WinterDesignDay
7,-1.0
2,1, 1,21, 0,18,30.00,45.00,WinterDesignDay
7,-1.0
2,1, 1,21, 0,18,45.00,60.00,WinterDesignDay
7,-1.0
2,1, 1,21, 0,18, 0.00,60.00,WinterDesignDay
4438,121634.73982001969
2,1, 1,21, 0,19, 0.00,15.00,WinterDesignDay
7,-1.0
2,1, 1,21, 0,19,15.00,30.00,WinterDesignDay
7,-1.0
2,1, 1,21, 0,19,30.00,45.00,WinterDesignDay
7,-1.0
2,1, 1,21, 0,19,45.00,60.00,WinterDesignDay
7,-1.0
2,1, 1,21, 0,19, 0.00,60.00,WinterDesignDay
4438,121358.72378442323
2,1, 1,21, 0,20, 0.00,15.00,WinterDesignDay
7,-1.0
2,1, 1,21, 0,20,15.00,30.00,WinterDesignDay
7,-1.0
2,1, 1,21, 0,20,30.00,45.00,WinterDesignDay
7,-1.0
2,1, 1,21, 0,20,45.00,60.00,WinterDesignDay
7,-1.0
2,1, 1,21, 0,20, 0.00,60.00,WinterDesignDay
4438,121181.2592093593
2,1, 1,21, 0,21, 0.00,15.00,WinterDesignDay
7,-1.0
2,1, 1,21, 0,21,15.00,30.00,WinterDesignDay
7,-1.0
2,1, 1,21, 0,21,30.00,45.00,WinterDesignDay
7,-1.0
2,1, 1,21, 0,21,45.00,60.00,WinterDesignDay
7,-1.0
2,1, 1,21, 0,21, 0.00,60.00,WinterDesignDay
4438,121013.8627970499
2,1, 1,21, 0,22, 0.00,15.00,WinterDesignDay
7,-1.0
2,1, 1,21, 0,22,15.00,30.00,WinterDesignDay
7,-1.0
2,1, 1,21, 0,22,30.00,45.00,WinterDesignDay
7,-1.0
2,1, 1,21, 0,22,45.00,60.00,WinterDesignDay
7,-1.0
2,1, 1,21, 0,22, 0.00,60.00,WinterDesignDay
4438,70059.82964857003
2,1, 1,21, 0,23, 0.00,15.00,WinterDesignDay
7,-1.0
2,1, 1,21, 0,23,15.00,30.00,WinterDesignDay
7,-1.0
2,1, 1,21, 0,23,30.00,45.00,WinterDesignDay
7,-1.0
2,1, 1,21, 0,23,45.00,60.00,WinterDesignDay
7,-1.0
2,1, 1,21, 0,23, 0.00,60.00,WinterDesignDay
4438,81266.33966577309
2,1, 1,21, 0,24, 0.00,15.00,WinterDesignDay
7,-1.0
2,1, 1,21, 0,24,15.00,30.00,WinterDesignDay
7,-1.0
2,1, 1,21, 0,24,30.00,45.00,WinterDesignDay
7,-1.0
2,1, 1,21, 0,24,45.00,60.00,WinterDesignDay
7,-1.0
2,1, 1,21, 0,24, 0.00,60.00,WinterDesignDay
4438,88581.0180236394
1,RED-BLUFF-MUNICIPAL-ARPT AUG CLG 0.4% CONDNS DB=>MCWB,  40.15,-122.25,  -8.00, 106.00
2,1, 8,21, 0, 1, 0.00,15.00,SummerDesignDay
7,28.306
2,1, 8,21, 0, 1,15.00,30.00,SummerDesignDay
7,28.060000000000004
2,1, 8,21, 0, 1,30.00,45.00,SummerDesignDay
7,27.814
2,1, 8,21, 0, 1,45.00,60.00,SummerDesignDay
7,27.568
2,1, 8,21, 0, 1, 0.00,60.00,SummerDesignDay
4438,0.0
2,1, 8,21, 0, 2, 0.00,15.00,SummerDesignDay
7,27.404000000000005
2,1, 8,21, 0, 2,15.00,30.00,SummerDesignDay
7,27.240000000000003
2,1, 8,21, 0, 2,30.00,45.00,SummerDesignDay
7,27.076
2,1, 8,21, 0, 2,45.00,60.00,SummerDesignDay
7,26.912
2,1, 8,21, 0, 2, 0.00,60.00,SummerDesignDay
4438,0.0
2,1, 8,21, 0, 3, 0.00,15.00,SummerDesignDay
7,26.789
2,1, 8,21, 0, 3,15.00,30.00,SummerDesignDay
7,26.666
2,1, 8,21, 0, 3,30.00,45.00,SummerDesignDay
7,26.543000000000004
2,1, 8,21, 0, 3,45.00,60.00,SummerDesignDay
7,26.42
2,1, 8,21, 0, 3, 0.00,60.00,SummerDesignDay
4438,0.0
2,1, 8,21, 0, 4, 0.00,15.00,SummerDesignDay
7,26.297000000000005
2,1, 8,21, 0, 4,15.00,30.00,SummerDesignDay
7,26.174
2,1, 8,21, 0, 4,30.00,45.00,SummerDesignDay
7,26.051000000000003
2,1, 8,21, 0, 4,45.00,60.00,SummerDesignDay
7,25.928
2,1, 8,21, 0, 4, 0.00,60.00,SummerDesignDay
4438,0.0
2,1, 8,21, 0, 5, 0.00,15.00,SummerDesignDay
7,25.846
2,1, 8,21, 0, 5,15.00,30.00,SummerDesignDay
7,25.764000000000004
2,1, 8,21, 0, 5,30.00,45.00,SummerDesignDay
7,25.682000000000003
2,1, 8,21, 0, 5,45.00,60.00,SummerDesignDay
7,25.6
2,1, 8,21, 0, 5, 0.00,60.00,SummerDesignDay
4438,0.0
2,1, 8,21, 0, 6, 0.00,15.00,SummerDesignDay
7,25.682000000000003
2,1, 8,21, 0, 6,15.00,30.00,SummerDesignDay
7,25.764000000000004
2,1, 8,21, 0, 6,30.00,45.00,SummerDesignDay
7,25.846
2,1, 8,21, 0, 6,45.00,60.00,SummerDesignDay
7,25.928
2,1, 8,21, 0, 6, 0.00,60.00,SummerDesignDay
4438,0.0
2,1, 8,21, 0, 7, 0.00,15.00,SummerDesignDay
7,26.215000000000005
2,1, 8,21, 0, 7,15.00,30.00,SummerDesignDay
7,26.502000000000004
2,1, 8,21, 0, 7,30.00,45.00,SummerDesignDay
7,26.789
2,1, 8,21, 0, 7,45.00,60.00,SummerDesignDay
7,27.076
2,1, 8,21, 0, 7, 0.00,60.00,SummerDesignDay
4438,0.0
2,1, 8,21, 0, 8, 0.00,15.00,SummerDesignDay
7,27.773000000000005
2,1, 8,21, 0, 8,15.00,30.00,SummerDesignDay
7,28.470000000000004
2,1, 8,21, 0, 8,30.00,45.00,SummerDesignDay
7,29.167
2,1, 8,21, 0, 8,45.00,60.00,SummerDesignDay
7,29.864
2,1, 8,21, 0, 8, 0.00,60.00,SummerDesignDay
4438,0.0
2,1, 8,21, 0, 9, 0.00,15.00,SummerDesignDay
7,30.643
2,1, 8,21, 0, 9,15.00,30.00,SummerDesignDay
7,31.422
2,1, 8,21, 0, 9,30.00,45.00,SummerDesignDay
7,32.201
2,1, 8,21, 0, 9,45.00,60.00,SummerDesignDay
7,32.980000000000007
2,1, 8,21, 0, 9, 0.00,60.00,SummerDesignDay
4438,0.0
2,1, 8,21, 0,10, 0.00,15.00,SummerDesignDay
7,33.677
2,1, 8,21, 0,10,15.00,30.00,SummerDesignDay
7,34.374
2,1, 8,21, 0,10,30.00,45.00,SummerDesignDay
7,35.071
2,1, 8,21, 0,10,45.00,60.00,SummerDesignDay
7,35.768
2,1, 8,21, 0,10, 0.00,60.00,SummerDesignDay
4438,0.0
2,1, 8,21, 0,11, 0.00,15.00,SummerDesignDay
7,36.383
2,1, 8,21, 0,11,15.00,30.00,SummerDesignDay
7,36.998
2,1, 8,21, 0,11,30.00,45.00,SummerDesignDay
7,37.613
2,1, 8,21, 0,11,45.00,60.00,SummerDesignDay
7,38.228
2,1, 8,21, 0,11, 0.00,60.00,SummerDesignDay
4438,0.0
2,1, 8,21, 0,12, 0.00,15.00,SummerDesignDay
7,38.638
2,1, 8,21, 0,12,15.00,30.00,SummerDesignDay
7,39.048
2,1, 8,21, 0,12,30.00,45.00,SummerDesignDay
7,39.458
2,1, 8,21, 0,12,45.00,60.00,SummerDesignDay
7,39.868
2,1, 8,21, 0,12, 0.00,60.00,SummerDesignDay
4438,0.0
2,1, 8,21, 0,13, 0.00,15.00,SummerDesignDay
7,40.196
2,1, 8,21, 0,13,15.00,30.00,SummerDesignDay
7,40.524
2,1, 8,21, 0,13,30.00,45.00,SummerDesignDay
7,40.852
2,1, 8,21, 0,13,45.00,60.00,SummerDesignDay
7,41.18
2,1, 8,21, 0,13, 0.00,60.00,SummerDesignDay
4438,0.0
2,1, 8,21, 0,14, 0.00,15.00,SummerDesignDay
7,41.385
2,1, 8,21, 0,14,15.00,30.00,SummerDesignDay
7,41.59
2,1, 8,21, 0,14,30.00,45.00,SummerDesignDay
7,41.795
2,1, 8,21, 0,14,45.00,60.00,SummerDesignDay
7,42.0
2,1, 8,21, 0,14, 0.00,60.00,SummerDesignDay
4438,0.0
2,1, 8,21, 0,15, 0.00,15.00,SummerDesignDay
7,42.0
2,1, 8,21, 0,15,15.00,30.00,SummerDesignDay
7,42.0
2,1, 8,21, 0,15,30.00,45.00,SummerDesignDay
7,42.0
2,1, 8,21, 0,15,45.00,60.00,SummerDesignDay
7,42.0
2,1, 8,21, 0,15, 0.00,60.00,SummerDesignDay
4438,0.0
2,1, 8,21, 0,16, 0.00,15.00,SummerDesignDay
7,41.754
2,1, 8,21, 0,16,15.00,30.00,SummerDesignDay
7,41.508
2,1, 8,21, 0,16,30.00,45.00,SummerDesignDay
7,41.262
2,1, 8,21, 0,16,45.00,60.00,SummerDesignDay
7,41.016
2,1, 8,21, 0,16, 0.00,60.00,SummerDesignDay
4438,0.0
2,1, 8,21, 0,17, 0.00,15.00,SummerDesignDay
7,40.688
2,1, 8,21, 0,17,15.00,30.00,SummerDesignDay
7,40.36
2,1, 8,21, 0,17,30.00,45.00,SummerDesignDay
7,40.032
2,1, 8,21, 0,17,45.00,60.00,SummerDesignDay
7,39.704
2,1, 8,21, 0,17, 0.00,60.00,SummerDesignDay
4438,0.0
2,1, 8,21, 0,18, 0.00,15.00,SummerDesignDay
7,39.294
2,1, 8,21, 0,18,15.00,30.00,SummerDesignDay
7,38.884
2,1, 8,21, 0,18,30.00,45.00,SummerDesignDay
7,38.474000000000007
2,1, 8,21, 0,18,45.00,60.00,SummerDesignDay
7,38.064
2,1, 8,21, 0,18, 0.00,60.00,SummerDesignDay
4438,0.0
2,1, 8,21, 0,19, 0.00,15.00,SummerDesignDay
7,37.449
2,1, 8,21, 0,19,15.00,30.00,SummerDesignDay
7,36.834
2,1, 8,21, 0,19,30.00,45.00,SummerDesignDay
7,36.219
2,1, 8,21, 0,19,45.00,60.00,SummerDesignDay
7,35.604
2,1, 8,21, 0,19, 0.00,60.00,SummerDesignDay
4438,0.0
2,1, 8,21, 0,20, 0.00,15.00,SummerDesignDay
7,35.153
2,1, 8,21, 0,20,15.00,30.00,SummerDesignDay
7,34.702
2,1, 8,21, 0,20,30.00,45.00,SummerDesignDay
7,34.251
2,1, 8,21, 0,20,45.00,60.00,SummerDesignDay
7,33.8
2,1, 8,21, 0,20, 0.00,60.00,SummerDesignDay
4438,0.0
2,1, 8,21, 0,21, 0.00,15.00,SummerDesignDay
7,33.431
2,1, 8,21, 0,21,15.00,30.00,SummerDesignDay
7,33.062
2,1, 8,21, 0,21,30.00,45.00,SummerDesignDay
7,32.693
2,1, 8,21, 0,21,45.00,60.00,SummerDesignDay
7,32.324
2,1, 8,21, 0,21, 0.00,60.00,SummerDesignDay
4438,0.0
2,1, 8,21, 0,22, 0.00,15.00,SummerDesignDay
7,31.955
2,1, 8,21, 0,22,15.00,30.00,SummerDesignDay
7,31.586
2,1, 8,21, 0,22,30.00,45.00,SummerDesignDay
7,31.217
2,1, 8,21, 0,22,45.00,60.00,SummerDesignDay
7,30.848
2,1, 8,21, 0,22, 0.00,60.00,SummerDesignDay
4438,0.0
2,1, 8,21, 0,23, 0.00,15.00,SummerDesignDay
7,30.561
2,1, 8,21, 0,23,15.00,30.00,SummerDesignDay
7,30.274
2,1, 8,21, 0,23,30.00,45.00,SummerDesignDay
7,29.987000000000003
2,1, 8,21, 0,23,45.00,60.00,SummerDesignDay
7,29.700000000000004
2,1, 8,21, 0,23, 0.00,60.00,SummerDesignDay
4438,0.0
2,1, 8,21, 0,24, 0.00,15.00,SummerDesignDay
7,29.413000000000005
2,1, 8,21, 0,24,15.00,30.00,SummerDesignDay
7,29.126000000000006
2,1, 8,21, 0,24,30.00,45.00,SummerDesignDay
7,28.839
2,1, 8,21, 0,24,45.00,60.00,SummerDesignDay
7,28.552
2,1, 8,21, 0,24, 0.00,60.00,SummerDesignDay
4438,0.0
1,RED-BLUFF-MUNICIPAL-ARPT JUL CLG 0.4% CONDNS DB=>MCWB,  40.15,-122.25,  -8.00, 106.00
2,1, 7,21, 0, 1, 0.00,15.00,SummerDesignDay
7,29.8885
2,1, 7,21, 0, 1,15.00,30.00,SummerDesignDay
7,29.635
2,1, 7,21, 0, 1,30.00,45.00,SummerDesignDay
7,29.381500000000004
2,1, 7,21, 0, 1,45.00,60.00,SummerDesignDay
7,29.128
2,1, 7,21, 0, 1, 0.00,60.00,SummerDesignDay
4438,0.0
2,1, 7,21, 0, 2, 0.00,15.00,SummerDesignDay
7,28.959000000000004
2,1, 7,21, 0, 2,15.00,30.00,SummerDesignDay
7,28.79
2,1, 7,21, 0, 2,30.00,45.00,SummerDesignDay
7,28.621000000000003
2,1, 7,21, 0, 2,45.00,60.00,SummerDesignDay
7,28.451999999999999
2,1, 7,21, 0, 2, 0.00,60.00,SummerDesignDay
4438,0.0
2,1, 7,21, 0, 3, 0.00,15.00,SummerDesignDay
7,28.325250000000005
2,1, 7,21, 0, 3,15.00,30.00,SummerDesignDay
7,28.198500000000004
2,1, 7,21, 0, 3,30.00,45.00,SummerDesignDay
7,28.07175
2,1, 7,21, 0, 3,45.00,60.00,SummerDesignDay
7,27.945000000000005
2,1, 7,21, 0, 3, 0.00,60.00,SummerDesignDay
4438,0.0
2,1, 7,21, 0, 4, 0.00,15.00,SummerDesignDay
7,27.818250000000004
2,1, 7,21, 0, 4,15.00,30.00,SummerDesignDay
7,27.6915
2,1, 7,21, 0, 4,30.00,45.00,SummerDesignDay
7,27.564750000000005
2,1, 7,21, 0, 4,45.00,60.00,SummerDesignDay
7,27.438000000000004
2,1, 7,21, 0, 4, 0.00,60.00,SummerDesignDay
4438,0.0
2,1, 7,21, 0, 5, 0.00,15.00,SummerDesignDay
7,27.3535
2,1, 7,21, 0, 5,15.00,30.00,SummerDesignDay
7,27.269000000000003
2,1, 7,21, 0, 5,30.00,45.00,SummerDesignDay
7,27.1845
2,1, 7,21, 0, 5,45.00,60.00,SummerDesignDay
7,27.1
2,1, 7,21, 0, 5, 0.00,60.00,SummerDesignDay
4438,0.0