Program Version,EnergyPlus, Version 9.0.1-bb7ca4f0da, YMD=2019.11.26 11:24
1,5,Environment Title[],Latitude[deg],Longitude[deg],Time Zone[],Elevation[m]
2,8,Day of Simulation[],Month[],Day of Month[],DST Indicator[1=yes 0=no],Hour[],StartMinute[],EndMinute[],DayType
3,5,Cumulative Day of Simulation[],Month[],Day of Month[],DST Indicator[1=yes 0=no],DayType  ! When Daily Meters Requested
4,2,Cumulative Days of Simulation[],Month[]  ! When Monthly Meters Requested
5,1,Cumulative Days of Simulation[] ! When Run Period Meters Requested
6,1,Calendar Year of Simulation[] ! When Annual Meters Requested
4171,1,ProcessMotors:Fans:Electricity [J] !Hourly
11,1,Electricity:Facility [J] !Hourly
1017,1,Receptacle:InteriorEquipment:Electricity [J] !Hourly
2366,1,WaterSystems:Gas [J] !Hourly
4122,1,Fans:Electricity [J] !Hourly
47,1,InteriorLights:Electricity [J] !Hourly
993,1,InteriorEquipment:Electricity [J] !Hourly
4480,1,Pumps:Electricity [J] !Hourly
4244,1,Heating:Electricity [J] !Hourly
4355,1,Cooling:Electricity [J] !Hourly
2228,1,WaterSystems:Electricity [J] !Hourly
1497,1,Gas:Facility [J] !Hourly
1533,1,InteriorEquipment:Gas [J] !Hourly
4231,1,Heating:Gas [J] !Hourly
71,1,ComplianceLtg:InteriorLights:Electricity [J] !Hourly
1557,1,Receptacle:InteriorEquipment:Gas [J] !Hourly
346,1,NonComplianceLtg:InteriorLights:Electricity [J] !Hourly
4134,1,General:Fans:Electricity [J] !Hourly
End of Data Dictionary
1,SAN-JOSE-INTL_724945_CZ2010,  37.37,-121.93,  -8.00,  16.00
2,1, 1, 1, 0, 1, 0.00,60.00,Holiday
11,55710767.98809497
47,24156278.99999996
71,4835078.999999999
346,19321199.999999968
993,18722069.99999997
1017,18722069.99999997
1497,1042482.7336655562
1533,0.0
1557,0.0
2228,799282.0244792656
2366,1042482.7336655562
4122,12033136.963615735
4134,8488078.333418435
4171,3545058.630197299
4231,0.0
4244,0.0
4355,0.0
4480,0.0
2,1, 1, 1, 0, 2, 0.00,60.00,Holiday
11,56509901.05420983
47,24156278.99999996
71,4835078.999999999
346,19321199.999999968
993,18722069.99999997
1017,18722069.99999997
1497,1042592.2645633401
1533,0.0
1557,0.0
2228,1598415.090594124
2366,1042592.2645633401
4122,12033136.963615735
4134,8488078.333418435
4171,3545058.630197299
4231,0.0
4244,0.0
4355,0.0
4480,0.0
2,1, 1, 1, 0, 3, 0.00,60.00,Holiday
11,56509701.683500889
47,24156278.99999996
71,4835078.999999999
346,19321199.999999968
993,18722069.99999997
1017,18722069.99999997
1497,1303235.4849482584
1533,0.0
1557,0.0
2228,1598215.719885181
2366,1303235.4849482584
4122,12033136.963615735
4134,8488078.333418435
4171,3545058.630197299
4231,0.0
4244,0.0
4355,0.0
4480,0.0
2,1, 1, 1, 0, 4, 0.00,60.00,Holiday
11,56496516.23399221
47,24156278.99999996
71,4835078.999999999
346,19321199.999999968
993,18722069.99999997
1017,18722069.99999997
1497,1037175.5375119109
1533,0.0
1557,0.0
2228,1585030.270376503
2366,1037175.5375119109
4122,12033136.963615735
4134,8488078.333418435
4171,3545058.630197299
4231,0.0
4244,0.0
4355,0.0
4480,0.0
2,1, 1, 1, 0, 5, 0.00,60.00,Holiday
11,55703909.48477203
47,24156278.99999996
71,4835078.999999999
346,19321199.999999968
993,18722069.99999997
1017,18722069.99999997
1497,1037410.5643729824
1533,0.0
1557,0.0
2228,792423.5211563264
2366,1037410.5643729824
4122,12033136.963615735
4134,8488078.333418435
4171,3545058.630197299
4231,0.0
4244,0.0
4355,0.0
4480,0.0
2,1, 1, 1, 0, 6, 0.00,60.00,Holiday
11,115589784.86980541
47,52754678.99999992
71,4835078.999999999
346,47919599.99999992
993,47320469.999999929
1017,47320469.999999929
1497,29075858.196818264
1533,0.0
1557,0.0
2228,1585198.2742664233
2366,1305365.447811735
4122,13891682.811675536
4134,10346624.181478236
4171,3545058.630197299
4231,27770492.74900653
4244,4972.0215928168549
4355,0.0
4480,32782.76227067306
2,1, 1, 1, 0, 7, 0.00,60.00,Holiday
11,166073723.92158363
47,74203478.99999988
71,4835078.999999999
346,69368399.9999999
993,68769269.9999999
1017,68769269.9999999
1497,237162016.15153945
1533,28597212.921243654
1557,28597212.921243654
2228,1598458.140881131
2366,1042558.9598835172
4122,21464846.707682626
4134,10346624.181478236
4171,3545058.630197299
4231,207522244.27041225
4244,5073.9650794290769
4355,0.0
4480,32596.107940573915
2,1, 1, 1, 0, 8, 0.00,60.00,Holiday
11,162744145.9928159
47,74200627.58204538
71,4832227.582045493
346,69368399.9999999
993,68769269.9999999
1017,68769269.9999999
1497,154683513.86959744
1533,28597212.921243654
1557,28597212.921243654
2228,1639181.121887127
2366,1322975.2474297703
4122,18097607.13599569
4134,10346624.181478236
4171,3545058.630197299
4231,124763325.700924
4244,4537.470410870333
4355,0.0
4480,32922.68247686778
2,1, 1, 1, 0, 9, 0.00,60.00,Holiday
11,183498869.42797274
47,77864265.5937491
71,8495865.593749222
346,69368399.9999999
993,72641339.99999988
1017,72641339.99999988
1497,432675569.2973347
1533,0.0
1557,0.0
2228,2501035.0805762887
2366,1336474.018686504
4122,29559361.924736553
4134,23084557.069556528
4171,3545058.630197299
4231,431339095.2786482
4244,78871.41585795448
4355,0.0
4480,853995.4130528908
2,1, 1, 1, 0,10, 0.00,60.00,Holiday
11,176564251.94497333
47,77818802.32999805
71,8450402.329998168
346,69368399.9999999
993,72641339.99999988
1017,72641339.99999988
1497,308351200.4271883
1533,0.0
1557,0.0
2228,3393530.1590539768
2366,1349950.3069135238
4122,22538611.24807465
4134,16438388.361331024
4171,3545058.630197299
4231,307001250.1202748
4244,50061.044757156065
4355,0.0
4480,121907.16308951059
2,1, 1, 1, 0,11, 0.00,60.00,Holiday
11,182638236.53095073
47,78179413.57358897
71,30259813.573589013
346,47919599.99999992
993,74424959.99999996
1017,74424959.99999996
1497,284799364.1334453
1533,0.0
1557,0.0
2228,5867015.7066077389
2366,2047760.507085793
4122,24092025.1749085
4134,16375724.811218499
4171,3545058.630197299
4231,282751603.62635949
4244,34702.97974474219
4355,0.0
4480,40119.09610084779
2,1, 1, 1, 0,12, 0.00,60.00,Holiday
11,183270273.30565159
47,78042289.0661919
71,30122689.06619194
346,47919599.99999992
993,74424959.99999996
1017,74424959.99999996
1497,312096216.63107958
1533,11438885.168497468
1557,11438885.168497468
2228,5989785.582626907
2366,2378470.179335516
4122,24742022.343347007
4134,16375724.811218499
4171,3545058.630197299
4231,298278861.2832465
4244,34613.84293550464
4355,0.0
4480,36602.47055025786
2,1, 1, 1, 0,13, 0.00,60.00,Holiday
11,210696037.93357203
47,88622815.562555
71,40703215.562555018
346,47919599.99999992
993,89913239.99999997
1017,89913239.99999997
1497,272679648.15946879
1533,11438885.168497468
1557,11438885.168497468
2228,7370462.027061133
2366,2322388.2244868974
4122,24733685.609821503
4134,16375724.811218499
4171,3545058.630197299
4231,258918374.76648439
4244,25904.768361337454
4355,0.0
4480,29929.965773048818
2,1, 1, 1, 0,14, 0.00,60.00,Holiday
11,210544242.62190236
47,88809111.32427994
71,40889511.32427996
346,47919599.99999992
993,89913239.99999997
1017,89913239.99999997
1497,236869665.010407
1533,0.0
1557,0.0
2228,7370618.160121918
2366,2440351.791083276
4122,24399627.911723846
4134,16375724.811218499
4171,3545058.630197299
4231,234429313.21932376
4244,22787.86485578159
4355,0.0
4480,28857.360920872157
2,1, 1, 1, 0,15, 0.00,60.00,Holiday
11,209246739.18470327
47,88882918.73127637
71,40963318.731276389
346,47919599.99999992
993,89913239.99999997
1017,89913239.99999997
1497,222674604.18459664
1533,0.0
1557,0.0
2228,6181484.770381581
2366,2265976.2792809598
4122,24219539.355165207
4134,16375724.811218499
4171,3545058.630197299
4231,220408627.90531568
4244,21033.70031913322
4355,0.0
4480,28522.62756101909
2,1, 1, 1, 0,16, 0.00,60.00,Holiday
11,209124007.33549387
47,88916847.15711832
71,40997247.15711835
346,47919599.99999992
993,89913239.99999997
1017,89913239.99999997
1497,176047047.31247337
1533,0.0
1557,0.0
2228,7290469.567732774
2366,2421341.1874726174
4122,22956929.840555509
4134,16375724.811218499
4171,3545058.630197299
4231,173625706.12500073
4244,18048.08327514195
4355,0.0
4480,28472.68681213483
2,1, 1, 1, 0,17, 0.00,60.00,Holiday
11,209263507.82989357
47,89606015.86764741
71,41686415.86764742
346,47919599.99999992
993,89913239.99999997
1017,89913239.99999997
1497,181311043.8821389
1533,28597212.921243654
1557,28597212.921243654
2228,7451266.693845786
2366,2448931.536405411
4122,22247440.967481149
4134,16375724.811218499
4171,3545058.630197299
4231,150264899.42448987
4244,17005.38934231232
4355,0.0
4480,28538.911576931194
2,1, 1, 1, 0,18, 0.00,60.00,Holiday
11,182993528.4534646
47,78647111.99999994
71,30727511.99999999
346,47919599.99999992
993,74424959.99999996
1017,74424959.99999996
1497,233791888.61086539
1533,28597212.921243654
1557,28597212.921243654
2228,7139636.450617688
2366,2106255.9617670585
4122,22728401.64075175
4134,16375724.811218499
4171,3545058.630197299
4231,203088419.7278547
4244,24406.753067035177
4355,0.0
4480,29011.609028207087
2,1, 1, 1, 0,19, 0.00,60.00,Holiday
11,231998321.72062508
47,106749035.99999982
71,15931835.999999995
346,90817199.99999984
993,101834279.99999984
1017,101834279.99999984
1497,208253750.52436818
1533,28597212.921243654
1557,28597212.921243654
2228,4763496.706772402
2366,2003404.6089205025
4122,18588805.62227431
4134,14517178.963158694
4171,3545058.630197299
4231,177653132.99420405
4244,30542.813283327036
4355,0.0
4480,32160.578295164465
2,1, 1, 1, 0,20, 0.00,60.00,Holiday
11,260885299.56134916
47,124250678.9999998
71,4835078.999999999
346,119415599.9999998
993,118816469.99999982
1017,118816469.99999982
1497,2850470.93129127
1533,0.0
1557,0.0
2228,5750395.084153356
2366,2025414.1388828867
4122,12067755.477196016
4134,8488078.333418435
4171,3545058.630197299
4231,825056.7924083837
4244,0.0
4355,0.0
4480,0.0
2,1, 1, 1, 0,21, 0.00,60.00,Holiday
11,287329581.7479623
47,138549878.9999998
71,4835078.999999999
346,133714799.99999979
993,133115669.99999979
1017,133115669.99999979
1497,2026508.2480180944
1533,0.0
1557,0.0
2228,3616381.948529084
2366,1680595.7623300348
4122,12047650.799433459
4134,8488078.333418435
4171,3545058.630197299
4231,345912.4856880597
4244,0.0
4355,0.0
4480,0.0
2,1, 1, 1, 0,22, 0.00,60.00,Holiday
11,258573348.94780163
47,124250678.9999998
71,4835078.999999999
346,119415599.9999998
993,118816469.99999982
1017,118816469.99999982
1497,2070008.2672955543
1533,0.0
1557,0.0
2228,3455361.9232819338
2366,1648239.528716618
4122,12050838.024519928
4134,8488078.333418435
4171,3545058.630197299
4231,421768.73857893657
4244,0.0
4355,0.0
4480,0.0
2,1, 1, 1, 0,23, 0.00,60.00,Holiday
11,200362061.457501
47,95652278.99999984
71,4835078.999999999
346,90817199.99999984
993,90218069.99999985
1017,90218069.99999985
1497,1322969.3777234897
1533,0.0
1557,0.0
2228,2458575.4938854526
2366,1322969.3777234897
4122,12033136.963615735
4134,8488078.333418435
4171,3545058.630197299
4231,0.0
4244,0.0
4355,0.0
4480,0.0
2,1, 1, 1, 0,24, 0.00,60.00,Holiday
11,112900966.77217007
47,52754678.99999992
71,4835078.999999999
346,47919599.99999992
993,47320469.999999929
1017,47320469.999999929
1497,1037153.0326201014
1533,0.0
1557,0.0
2228,792680.8085543637
2366,1037153.0326201014
4122,12033136.963615735
4134,8488078.333418435
4171,3545058.630197299
4231,0.0
4244,0.0
4355,0.0
4480,0.0
2,2, 1, 2, 0, 1, 0.00,60.00,Friday
11,55691294.90331401
47,24156278.99999996
71,4835078.999999999
346,19321199.999999968
993,18722069.99999997
1017,18722069.99999997
1497,1029593.6946558483
1533,0.0
1557,0.0
2228,779808.9396983084
2366,1029593.6946558483
4122,12033136.963615735
4134,8488078.333418435
4171,3545058.630197299
4231,0.0
4244,0.0
4355,0.0
4480,0.0
2,2, 1, 2, 0, 2, 0.00,60.00,Friday
11,56483874.9080881
47,24156278.99999996
71,4835078.999999999
346,19321199.999999968
993,18722069.99999997
1017,18722069.99999997
1497,1034375.8895872298
1533,0.0
1557,0.0
2228,1572388.944472397
2366,1034375.8895872298
4122,12033136.963615735
4134,8488078.333418435
4171,3545058.630197299
4231,0.0
4244,0.0
4355,0.0
4480,0.0
2,2, 1, 2, 0, 3, 0.00,60.00,Friday
11,55697715.82545842
47,24156278.99999996
71,4835078.999999999
346,19321199.999999968
993,18722069.99999997
1017,18722069.99999997
1497,1034532.5286128807
1533,0.0
1557,0.0
2228,786229.8618427175
2366,1034532.5286128807
4122,12033136.963615735
4134,8488078.333418435
4171,3545058.630197299
4231,0.0
4244,0.0
4355,0.0
4480,0.0
2,2, 1, 2, 0, 4, 0.00,60.00,Friday
11,55751149.63509138
47,24156278.99999996
71,4835078.999999999
346,19321199.999999968
993,18722069.99999997
1017,18722069.99999997
1497,2462954.7465833334
1533,0.0
1557,0.0
2228,779835.9437965977
2366,1029570.3065641032
4122,12092964.691294812
4134,8488078.333418435
4171,3545058.630197299
4231,1433384.4400192297
4244,0.0
4355,0.0
4480,0.0
2,2, 1, 2, 0, 5, 0.00,60.00,Friday
11,56078172.2318978
47,24156278.99999996
71,4835078.999999999
346,19321199.999999968
993,18722069.99999997
1017,18722069.99999997
1497,10283724.42443002
1533,0.0
1557,0.0
2228,779741.2103574597
2366,1029588.8884573947
4122,12420082.021540367
4134,8488078.333418435
4171,3545058.630197299
4231,9254135.535972625
4244,0.0
4355,0.0
4480,0.0
2,2, 1, 2, 0, 6, 0.00,60.00,Friday
11,124042755.36972544
47,53890838.99999992
71,5971238.999999999
346,47919599.99999992
993,47871269.999999929
1017,47871269.999999929
1497,196584609.67274926
1533,0.0
1557,0.0
2228,1559674.5237678849
2366,1036321.8176311605
4122,20303603.324358316
4134,16436508.009400242
4171,3545058.630197299
4231,195548287.8551181
4244,36709.779974926736
4355,119039.42427851429
4480,261619.31734584119
2,2, 1, 2, 0, 7, 0.00,60.00,Friday
11,201664989.650292
47,80361638.99999988
71,5971238.999999999
346,74390399.99999988
993,69320069.9999999
1017,69320069.9999999
1497,1072172300.6186196
1533,28597212.921243654
1557,28597212.921243654
2228,779865.4382594037
2366,1273568.4316742444
4122,49268648.61058849
4134,24557128.123494679
4171,3545058.6301972998
4231,1042301519.2657015
4244,123036.26849746841
4355,0.0
4480,1811730.3329468065
2,2, 1, 2, 0, 8, 0.00,60.00,Friday
11,214816294.93124367
47,95754946.90930653
71,21364546.90930665
346,74390399.99999988
993,83139479.99999988
1017,83139479.99999988
1497,741302548.6841573
1533,28882321.086319496
1557,28882321.086319496
2228,2568527.7939644868
2366,1705924.0103307106
4122,32620069.998287813
4134,16515821.855347787
4171,3545058.630197299
4231,710714303.587507
4244,94176.09843191592
4355,0.0
4480,639094.1312529412
2,2, 1, 2, 0, 9, 0.00,60.00,Friday
11,270112305.8634392
47,123245673.0329594
71,48855273.03295952
346,74390399.99999988
993,112981499.99999987
1017,112981499.99999987
1497,539735439.0749756
1533,285108.16507584266
1557,285108.16507584266
2228,4611828.587996707
2366,2442075.0141897376
4122,28997747.595427377
4134,16375724.811218499
4171,3545058.630197299
4231,537008255.89571
4244,69310.09918603569
4355,0.0
4480,206246.5478696866
2,2, 1, 2, 0,10, 0.00,60.00,Friday
11,327725053.3405545
47,149544905.52105106
71,75154505.5210511
346,74390399.99999988
993,143958059.99999995
1017,143958059.99999995
1497,400636976.2815535
1533,285108.16507584266
1557,285108.16507584266
2228,7068607.511769857
2366,2641040.435456476
4122,27030561.38293293
4134,16427386.022047855
4171,3545058.630197299
4231,397710827.68102118
4244,45664.95440022947
4355,0.0
4480,77253.97040041261
2,2, 1, 2, 0,11, 0.00,60.00,Friday
11,284952938.03065946
47,128127258.30433974
71,75185658.30433975
346,52941599.9999999
993,122509259.99999996
1017,122509259.99999996
1497,344058922.03916469
1533,513194.69713651677
1557,513194.69713651677
2228,7805849.203570682
2366,3404209.511732207
4122,26432218.0178321
4134,16426344.254692102
4171,3545058.630197299
4231,340141517.8302959
4244,35200.0105287086
4355,0.0
4480,43152.49438819528
2,2, 1, 2, 0,12, 0.00,60.00,Friday
11,287061913.9423788
47,128470218.41625315
71,75528618.4162532
346,52941599.9999999
993,122509259.99999996
1017,122509259.99999996
1497,264132742.77225686
1533,11952079.865633984
1557,11952079.865633984
2228,11422292.258273539
2366,3954888.996608669
4122,24603349.425913596
4134,16603437.476572453
4171,3545058.630197299
4231,248225773.91001419
4244,25770.114011530197
4355,0.0
4480,31023.72792704196
2,2, 1, 2, 0,13, 0.00,60.00,Friday
11,284631568.5841967
47,126258418.05305113
71,73316818.05305116
346,52941599.9999999
993,122509259.99999996
1017,122509259.99999996
1497,227424931.6746066
1533,11952079.865633984
1557,11952079.865633984
2228,12783711.88132215
2366,4404104.063562513
4122,23023997.238689439
4134,16660996.968905447
4171,3545058.630197299
4231,211068747.7454101
4244,25955.87155490383
4355,0.0
4480,30225.539579145712
2,2, 1, 2, 0,14, 0.00,60.00,Friday
11,286439625.3997296
47,129100159.66204548
71,76158559.66204551
346,52941599.9999999
993,122509259.99999996
1017,122509259.99999996
1497,204949923.82681895
1533,513194.69713651677
1557,513194.69713651677
2228,11624483.391472113
2366,4447915.00097868
4122,23152688.376188835
4134,16715571.009407305
4171,3545058.630197299
4231,199988814.12870378
4244,23551.74340459104
4355,0.0
4480,29482.226618599394
2,2, 1, 2, 0,15, 0.00,60.00,Friday
11,284738232.53722456
47,128843244.46552034
71,75901644.46552035
346,52941599.9999999
993,122509259.99999996
1017,122509259.99999996
1497,190571057.51613087
1533,427662.2476137639
1557,427662.2476137639
2228,9962373.459512126
2366,3464112.707041608
4122,23374394.52878376
4134,16755714.711838549
4171,3545058.630197299
4231,186679282.5614755
4244,20376.77322922045
4355,0.0
4480,28583.310179246597
2,2, 1, 2, 0,16, 0.00,60.00,Friday
11,279177435.0846044
47,125153515.09899767
71,72211915.09899768
346,52941599.9999999
993,122509259.99999996
1017,122509259.99999996
1497,150034005.25884534
1533,427662.2476137639
1557,427662.2476137639
2228,9355180.964575546
2366,3273488.1283133665
4122,22112142.52010619
4134,16949500.701226884
4171,3545058.630197299
4231,146332854.88291819
4244,18903.195861312448
4355,0.0
4480,28433.305063631036
2,2, 1, 2, 0,17, 0.00,60.00,Friday
11,283300175.3336022
47,129252086.32614191
71,76310486.32614193
346,52941599.9999999
993,122509259.99999996
1017,122509259.99999996
1497,193965841.37741349
1533,29024875.168857416
1557,29024875.168857416
2228,9471406.390519117
2366,3619927.4501464667
4122,22016274.284715438
4134,17002885.36652574
4171,3545058.630197299
4231,161321038.75840957
4244,22192.701211109466
4355,0.0
4480,28955.631014569535
2,2, 1, 2, 0,18, 0.00,60.00,Friday
11,274796671.134244
47,123776342.99999996
71,70834742.99999997
346,52941599.9999999
993,118102859.99999997
1017,118102859.99999997
1497,272135639.3195747
1533,29024875.168857416
1557,29024875.168857416
2228,9546137.491346568
2366,3110620.2852425759
4122,23306236.252024469
4134,16725087.622069037
4171,3545058.630197299
4231,240000143.86547477
4244,30808.01475647976
4355,0.0
4480,34286.376116502724
2,2, 1, 2, 0,19, 0.00,60.00,Friday
11,307806377.0010571
47,143344268.99999986
71,47505068.99999999
346,95839199.99999984
993,135564839.99999989
1017,135564839.99999989
1497,241789304.67946495
1533,28597212.921243654
1557,28597212.921243654
2228,7926376.13444776
2366,2970480.6968975535
4122,20892870.83834575
4134,16493993.297478227
4171,3545058.630197299
4231,210221611.0613237
4244,36124.76155022197
4355,0.0
4480,41896.26671355254
2,2, 1, 2, 0,20, 0.00,60.00,Friday
11,363498712.5618115
47,171942668.99999974
71,47505068.99999999
346,124437599.9999998
993,164163239.99999974
1017,164163239.99999974
1497,200092041.03357948
1533,0.0
1557,0.0
2228,7214394.992624633
2366,2475260.0265109075
4122,20097348.181704515
4134,16381706.177495987
4171,3545058.630197299
4231,197616781.00706855
4244,37015.44589857769
4355,0.0
4480,44044.94158412836
2,2, 1, 2, 0,21, 0.00,60.00,Friday
11,376138547.8585502
47,180270629.9999997
71,41533829.999999988
346,138736799.9999998
993,169616699.99999974
1017,169616699.99999974
1497,212129022.51324494
1533,0.0
1557,0.0
2228,6118153.022274403
2366,2473478.5039237167
4122,20041726.58483636
4134,16375724.811218499
4171,3545058.630197299
4231,209655544.0093212
4244,40137.19579230144
4355,0.0
4480,51201.05564742753
2,2, 1, 2, 0,22, 0.00,60.00,Friday
11,294651617.7590029
47,143777915.9999998
71,19340315.999999998
346,124437599.9999998
993,132085079.9999998
1017,132085079.9999998
1497,84891683.54921915
1533,0.0
1557,0.0
2228,4608479.354168367
2366,2000496.6031988124
4122,14137820.48589335
4134,10346624.181478236
4171,3545058.630197299
4231,82891186.94602035
4244,13810.191720355868
4355,0.0
4480,28511.727221186033
2,2, 1, 2, 0,23, 0.00,60.00,Friday
11,204833597.77172167
47,96788438.99999984
71,5971238.999999999
346,90817199.99999984
993,90768869.99999985
1017,90768869.99999985
1497,84910530.5915345
1533,0.0
1557,0.0
2228,3341226.221794308
2366,1346094.9794267147
4122,13891682.811675536
4134,10346624.181478236
4171,3545058.630197299
4231,83564435.61210779
4244,14961.354197426595
4355,0.0
4480,28418.384054577404
2,2, 1, 2, 0,24, 0.00,60.00,Friday
11,115645385.98863536
47,52754678.99999992
71,4835078.999999999
346,47919599.99999992
993,47320469.999999929
1017,47320469.999999929
1497,92146451.45582445
1533,0.0
1557,0.0
2228,1633673.3265863979
2366,1055750.7122083596
4122,13891682.811675536
4134,10346624.181478236
4171,3545058.630197299
4231,91090700.74361608
4244,16308.85469319877
4355,0.0
4480,28571.9956802666
2,3, 1, 3, 0, 1, 0.00,60.00,Saturday
11,56564908.356699857
47,24156278.99999996
71,4835078.999999999
346,19321199.999999968
993,18722069.99999997
1017,18722069.99999997
1497,1327018.5268899552
1533,0.0
1557,0.0
2228,1653422.3930841434
2366,1327018.5268899552
4122,12033136.963615735
4134,8488078.333418435
4171,3545058.630197299
4231,0.0
4244,0.0
4355,0.0
4480,0.0
2,3, 1, 3, 0, 2, 0.00,60.00,Saturday
11,57370656.85927651
47,24156278.99999996
71,4835078.999999999
346,19321199.999999968
993,18722069.99999997
1017,18722069.99999997
1497,1336022.9174025532
1533,0.0
1557,0.0
2228,2458758.2986776998
2366,1325825.1179979025
4122,12033549.560598841
4134,8488078.333418435
4171,3545058.630197299
4231,10197.79940465085
4244,0.0
4355,0.0
4480,0.0
2,3, 1, 3, 0, 3, 0.00,60.00,Saturday
11,56729315.947025809
47,24156278.99999996
71,4835078.999999999
346,19321199.999999968
993,18722069.99999997
1017,18722069.99999997
1497,6296677.7235554479
1533,0.0
1557,0.0
2228,1611894.1310086554
2366,1312588.9477304375
4122,12239072.81601718
4134,8488078.333418435
4171,3545058.630197299
4231,4984088.775825011
4244,0.0
4355,0.0
4480,0.0
2,3, 1, 3, 0, 4, 0.00,60.00,Saturday
11,57494444.19585504
47,24156278.99999996
71,4835078.999999999
346,19321199.999999968
993,18722069.99999997
1017,18722069.99999997
1497,24692734.8795098
1533,0.0
1557,0.0
2228,1585216.793566716
2366,1039587.5069136745
4122,13030878.402288355
4134,8488078.333418435
4171,3545058.630197299
4231,23653147.372596124
4244,0.0
4355,0.0
4480,0.0
2,3, 1, 3, 0, 5, 0.00,60.00,Saturday
11,57927738.60563485
47,24156278.99999996
71,4835078.999999999
346,19321199.999999968
993,18722069.99999997
1017,18722069.99999997
1497,54123212.894468087
1533,0.0
1557,0.0
2228,792688.6378220527
2366,1133277.904628581
4122,14256700.96781284
4134,8488078.333418435
4171,3545058.630197299
4231,52989934.989839497
4244,0.0
4355,0.0
4480,0.0
2,3, 1, 3, 0, 6, 0.00,60.00,Saturday
11,121664768.2575788
47,52754678.99999992
71,4835078.999999999
346,47919599.99999992
993,47320469.999999929
1017,47320469.999999929
1497,268053591.65271763
1533,0.0
1557,0.0
2228,1585384.7159694203
2366,1214052.0038364584
4122,19446230.755152115
4134,13569319.64503863
4171,3545058.630197299
4231,266839539.64888115
4244,41787.372829993714
4355,93190.36539224198
4480,423026.04823505997
2,3, 1, 3, 0, 7, 0.00,60.00,Saturday
11,209889517.9313093
47,80361638.99999988
71,5971238.999999999
346,74390399.99999988
993,69320069.9999999
1017,69320069.9999999
1497,1328021858.8083964
1533,28597212.921243654
1557,28597212.921243654
2228,1598372.2935957113
2366,1265791.721437384
4122,56615448.25370732
4134,23555527.89396005
4171,3545058.6301972998
4231,1298158854.1657153
4244,135817.99574734743
4355,0.0
4480,1858170.3882590514
2,3, 1, 3, 0, 8, 0.00,60.00,Saturday
11,200265061.71708528
47,83800926.72033109
71,9410526.72033122
346,74390399.99999988
993,73192139.99999988
1017,73192139.99999988
1497,948802253.2312958
1533,28597212.921243654
1557,28597212.921243654
2228,3583591.3432420787
2366,1749167.1151140202
4122,38224199.68266937
4134,16683211.838653062
4171,3545058.630197299
4231,918455873.1949382
4244,114544.2706863501
4355,0.0
4480,1349659.7001564196
2,3, 1, 3, 0, 9, 0.00,60.00,Saturday
11,228518263.59412784
47,100676854.6363982
71,26286454.63639835
346,74390399.99999988
993,90883619.99999987
1017,90883619.99999987
1497,683643304.1964476
1533,285108.16507584266
1557,285108.16507584266
2228,5008309.23515392
2366,2045515.614123309
4122,31183875.756377508
4134,16382683.987149584
4171,3545058.630197299
4231,681312680.4172485
4244,94077.42194631836
4355,0.0
4480,671526.5442519037
2,3, 1, 3, 0,10, 0.00,60.00,Saturday
11,264280701.0876746
47,118178927.11860773
71,43788527.11860786
346,74390399.99999988
993,114116039.99999988
1017,114116039.99999988
1497,476161347.8610192
1533,285108.16507584266
1557,285108.16507584266
2228,5388269.93380743
2366,2412826.0180439029
4122,26259687.03429313
4134,16419955.835713227
4171,3545058.630197299
4231,473463413.6778995
4244,69538.82429186958
4355,0.0
4480,268238.1766744509
2,3, 1, 3, 0,11, 0.00,60.00,Saturday
11,265988517.60856463
47,116782230.60511342
71,63840630.60511344
346,52941599.9999999
993,115899659.99999997
1017,115899659.99999997
1497,356049284.37099829
1533,513194.69713651677
1557,513194.69713651677
2228,8801744.442647869
2366,2824105.457361078
4122,24351652.234555507
4134,16496450.792830471
4171,3545058.630197299
4231,352711984.21650066
4244,50306.52740165506
4355,0.0
4480,102923.79884621586
2,3, 1, 3, 0,12, 0.00,60.00,Saturday
11,266041898.45239634
47,116857152.56278825
71,63915552.56278825
346,52941599.9999999
993,115899659.99999997
1017,115899659.99999997
1497,270959423.40125337
1533,11952079.865633984
1557,11952079.865633984
2228,10750250.330176196
2366,3374831.3164624257
4122,22445418.27671157
4134,16678218.178462999
4171,3545058.630197299
4231,255632512.2191569
4244,38639.94014435314
4355,0.0
4480,50777.34257603457
2,3, 1, 3, 0,13, 0.00,60.00,Saturday
11,260969597.93846787
47,113517647.93950053
71,60576047.93950054
346,52941599.9999999
993,114247259.99999997
1017,114247259.99999997
1497,223982584.56433989
1533,11952079.865633984
1557,11952079.865633984
2228,11267713.185388199
2366,3683843.0241363926
4122,21625045.953203508
4134,16783349.160072477
4171,3545058.630197299
4231,208346661.6745695
4244,33033.41820319541
4355,241144.6155911027
4480,37752.826581339265
2,3, 1, 3, 0,14, 0.00,60.00,Saturday
11,262381714.2235329
47,113180799.84266123
71,60239199.84266125
346,52941599.9999999
993,114247259.99999997
1017,114247259.99999997
1497,183737132.29876469
1533,513194.69713651677
1557,513194.69713651677
2228,12495190.061512862
2366,3698430.9981598539
4122,21466226.855866445
4134,17008862.083747396
4171,3545058.630197299
4231,179525506.6034683
4244,29313.43121545302
4355,929964.2026851158
4480,32959.829591805494
2,3, 1, 3, 0,15, 0.00,60.00,Saturday
11,260460140.88122953
47,113162497.29354179
71,60220897.29354182
346,52941599.9999999
993,114247259.99999997
1017,114247259.99999997
1497,155323922.52200369
1533,427662.2476137639
1557,427662.2476137639
2228,9767979.363148578
2366,3054580.8614468525
4122,21648961.176910495
4134,17393540.55489386
4171,3545058.630197299
4231,151841679.41294308
4244,25161.567331258644
4355,1578198.3104920143
4480,30083.16980545665
2,3, 1, 3, 0,16, 0.00,60.00,Saturday
11,260132223.7986886
47,113409630.97942034
71,60468030.97942036
346,52941599.9999999
993,114247259.99999997
1017,114247259.99999997
1497,125448748.69523221
1533,427662.2476137639
1557,427662.2476137639
2228,9443348.320182607
2366,3009707.7756895117
4122,21862602.123240696
4134,17835030.591175744
4171,3545058.630197299
4231,122011378.67192894
4244,20440.577462212983
4355,1120387.9737057728
4480,28553.824677036515
2,3, 1, 3, 0,17, 0.00,60.00,Saturday
11,263691250.15142019
47,118452784.37378162
71,65511184.373781647
346,52941599.9999999
993,114247259.99999997
1017,114247259.99999997
1497,164156655.2417991
1533,29024875.168857416
1557,29024875.168857416
2228,9106711.570436124
2366,3007236.057002149
4122,21803771.183092998
4134,17900199.141037004
4171,3545058.630197299
4231,132124544.01593954
4244,21800.642171933974
4355,30205.16080176232
4480,28717.221135770244
2,3, 1, 3, 0,18, 0.00,60.00,Saturday
11,256009893.55628587
47,111937382.99999996
71,64017782.99999998
346,47919599.99999992
993,113145659.99999997
1017,113145659.99999997
1497,212551551.57364685
1533,28597212.921243654
1557,28597212.921243654
2228,9355356.697980784
2366,2931655.3338961109
4122,21508940.221131214
4134,17274279.63112907
4171,3545058.630197299
4231,181022683.3185071
4244,29628.81096670217
4355,0.0
4480,32924.82620724616
2,3, 1, 3, 0,19, 0.00,60.00,Saturday
11,283449541.18021658
47,128942549.99999987
71,38125349.999999988
346,90817199.99999984
993,125066699.99999988
1017,125066699.99999988
1497,231897276.2990812
1533,28597212.921243654
1557,28597212.921243654
2228,9232466.518132199
2366,2781472.0657100204
4122,20125822.160684997
4134,16375724.811218499
4171,3545058.630197299
4231,200518591.31212757
4244,37361.11557722985
4355,0.0
4480,44641.3858223048
2,3, 1, 3, 0,20, 0.00,60.00,Saturday
11,306302649.9782897
47,142745273.9999998
71,23329673.999999994
346,119415599.9999998
993,138176819.9999998
1017,138176819.9999998
1497,162972440.0088132
1533,0.0
1557,0.0
2228,7229820.747747941
2366,2329972.279471207
4122,18086158.263791779
4134,14517178.963158694
4171,3545058.630197299
4231,160642467.72934199
4244,29407.371321485607
4355,0.0
4480,35169.59542877246
2,3, 1, 3, 0,21, 0.00,60.00,Saturday
11,333415915.10655346
47,157044473.99999977
71,23329673.999999994
346,133714799.99999979
993,152476019.99999977
1017,152476019.99999977
1497,190909657.79873649
1533,0.0
1557,0.0
2228,5740813.019861221
2366,2287019.2665483576
4122,18076590.674055686
4134,14517178.963158694
4171,3545058.630197299
4231,188622638.53218813
4244,35769.365838434955
4355,0.0
4480,42248.04679834156
2,3, 1, 3, 0,22, 0.00,60.00,Saturday
11,272888696.4001584
47,127949597.9999998
71,8533997.999999999
346,119415599.9999998
993,122688539.9999998
1017,122688539.9999998