Program Version,EnergyPlus, Version 9.0.1-bb7ca4f0da, YMD=2019.12.18 15:58
1,5,Environment Title[],Latitude[deg],Longitude[deg],Time Zone[],Elevation[m]
2,8,Day of Simulation[],Month[],Day of Month[],DST Indicator[1=yes 0=no],Hour[],StartMinute[],EndMinute[],DayType
3,5,Cumulative Day of Simulation[],Month[],Day of Month[],DST Indicator[1=yes 0=no],DayType  ! When Daily Report Variables Requested
4,2,Cumulative Days of Simulation[],Month[]  ! When Monthly Report Variables Requested
5,1,Cumulative Days of Simulation[] ! When Run Period Report Variables Requested
6,1,Calendar Year of Simulation[] ! When Annual Report Variables Requested
7,1,Environment,Site Outdoor Air Drybulb Temperature [C] !TimeStep
8,1,Environment,Site Outdoor Air Drybulb Temperature [C] !Hourly
End of Data Dictionary
1,TORRANCE_722955_CZ2010,  33.80,-118.33,  -8.00,  27.00
2,1, 1, 1, 0, 1, 0.00,15.00,Holiday
7,10.400000000000003
2,1, 1, 1, 0, 1,15.00,30.00,Holiday
7,9.5
2,1, 1, 1, 0, 1,30.00,45.00,Holiday
7,8.600000000000002
2,1, 1, 1, 0, 1,45.00,60.00,Holiday
7,7.7
2,1, 1, 1, 0, 1, 0.00,60.00,Holiday
8,9.05
2,1, 1, 1, 0, 2, 0.00,15.00,Holiday
7,7.6000000000000009
2,1, 1, 1, 0, 2,15.00,30.00,Holiday
7,7.5
2,1, 1, 1, 0, 2,30.00,45.00,Holiday
7,7.3999999999999999
2,1, 1, 1, 0, 2,45.00,60.00,Holiday
7,7.3
2,1, 1, 1, 0, 2, 0.00,60.00,Holiday
8,7.45
2,1, 1, 1, 0, 3, 0.00,15.00,Holiday
7,7.199999999999999
2,1, 1, 1, 0, 3,15.00,30.00,Holiday
7,7.1
2,1, 1, 1, 0, 3,30.00,45.00,Holiday
7,7.000000000000001
2,1, 1, 1, 0, 3,45.00,60.00,Holiday
7,6.9
2,1, 1, 1, 0, 3, 0.00,60.00,Holiday
8,7.050000000000001
2,1, 1, 1, 0, 4, 0.00,15.00,Holiday
7,6.800000000000001
2,1, 1, 1, 0, 4,15.00,30.00,Holiday
7,6.7
2,1, 1, 1, 0, 4,30.00,45.00,Holiday
7,6.6
2,1, 1, 1, 0, 4,45.00,60.00,Holiday
7,6.5
2,1, 1, 1, 0, 4, 0.00,60.00,Holiday
8,6.65
2,1, 1, 1, 0, 5, 0.00,15.00,Holiday
7,6.4
2,1, 1, 1, 0, 5,15.00,30.00,Holiday
7,6.3
2,1, 1, 1, 0, 5,30.00,45.00,Holiday
7,6.199999999999999
2,1, 1, 1, 0, 5,45.00,60.00,Holiday
7,6.1
2,1, 1, 1, 0, 5, 0.00,60.00,Holiday
8,6.25
2,1, 1, 1, 0, 6, 0.00,15.00,Holiday
7,5.949999999999999
2,1, 1, 1, 0, 6,15.00,30.00,Holiday
7,5.8
2,1, 1, 1, 0, 6,30.00,45.00,Holiday
7,5.65
2,1, 1, 1, 0, 6,45.00,60.00,Holiday
7,5.5
2,1, 1, 1, 0, 6, 0.00,60.00,Holiday
8,5.725
2,1, 1, 1, 0, 7, 0.00,15.00,Holiday
7,5.45
2,1, 1, 1, 0, 7,15.00,30.00,Holiday
7,5.4
2,1, 1, 1, 0, 7,30.00,45.00,Holiday
7,5.35
2,1, 1, 1, 0, 7,45.00,60.00,Holiday
7,5.3
2,1, 1, 1, 0, 7, 0.00,60.00,Holiday
8,5.375000000000001
2,1, 1, 1, 0, 8, 0.00,15.00,Holiday
7,5.35
2,1, 1, 1, 0, 8,15.00,30.00,Holiday
7,5.4
2,1, 1, 1, 0, 8,30.00,45.00,Holiday
7,5.45
2,1, 1, 1, 0, 8,45.00,60.00,Holiday
7,5.5
2,1, 1, 1, 0, 8, 0.00,60.00,Holiday
8,5.425
2,1, 1, 1, 0, 9, 0.00,15.00,Holiday
7,5.875
2,1, 1, 1, 0, 9,15.00,30.00,Holiday
7,6.25
2,1, 1, 1, 0, 9,30.00,45.00,Holiday
7,6.625
2,1, 1, 1, 0, 9,45.00,60.00,Holiday
7,7.0
2,1, 1, 1, 0, 9, 0.00,60.00,Holiday
8,6.4375
2,1, 1, 1, 0,10, 0.00,15.00,Holiday
7,7.65
2,1, 1, 1, 0,10,15.00,30.00,Holiday
7,8.3
2,1, 1, 1, 0,10,30.00,45.00,Holiday
7,8.95
2,1, 1, 1, 0,10,45.00,60.00,Holiday
7,9.6
2,1, 1, 1, 0,10, 0.00,60.00,Holiday
8,8.625
2,1, 1, 1, 0,11, 0.00,15.00,Holiday
7,10.299999999999999
2,1, 1, 1, 0,11,15.00,30.00,Holiday
7,11.0
2,1, 1, 1, 0,11,30.00,45.00,Holiday
7,11.700000000000001
2,1, 1, 1, 0,11,45.00,60.00,Holiday
7,12.4
2,1, 1, 1, 0,11, 0.00,60.00,Holiday
8,11.35
2,1, 1, 1, 0,12, 0.00,15.00,Holiday
7,12.875
2,1, 1, 1, 0,12,15.00,30.00,Holiday
7,13.350000000000002
2,1, 1, 1, 0,12,30.00,45.00,Holiday
7,13.825000000000001
2,1, 1, 1, 0,12,45.00,60.00,Holiday
7,14.3
2,1, 1, 1, 0,12, 0.00,60.00,Holiday
8,13.587500000000003
2,1, 1, 1, 0,13, 0.00,15.00,Holiday
7,14.775000000000003
2,1, 1, 1, 0,13,15.00,30.00,Holiday
7,15.25
2,1, 1, 1, 0,13,30.00,45.00,Holiday
7,15.724999999999998
2,1, 1, 1, 0,13,45.00,60.00,Holiday
7,16.2
2,1, 1, 1, 0,13, 0.00,60.00,Holiday
8,15.4875
2,1, 1, 1, 0,14, 0.00,15.00,Holiday
7,16.349999999999999
2,1, 1, 1, 0,14,15.00,30.00,Holiday
7,16.5
2,1, 1, 1, 0,14,30.00,45.00,Holiday
7,16.650000000000003
2,1, 1, 1, 0,14,45.00,60.00,Holiday
7,16.8
2,1, 1, 1, 0,14, 0.00,60.00,Holiday
8,16.575
2,1, 1, 1, 0,15, 0.00,15.00,Holiday
7,16.650000000000003
2,1, 1, 1, 0,15,15.00,30.00,Holiday
7,16.5
2,1, 1, 1, 0,15,30.00,45.00,Holiday
7,16.349999999999999
2,1, 1, 1, 0,15,45.00,60.00,Holiday
7,16.2
2,1, 1, 1, 0,15, 0.00,60.00,Holiday
8,16.425
2,1, 1, 1, 0,16, 0.00,15.00,Holiday
7,16.325
2,1, 1, 1, 0,16,15.00,30.00,Holiday
7,16.45
2,1, 1, 1, 0,16,30.00,45.00,Holiday
7,16.575
2,1, 1, 1, 0,16,45.00,60.00,Holiday
7,16.7
2,1, 1, 1, 0,16, 0.00,60.00,Holiday
8,16.5125
2,1, 1, 1, 0,17, 0.00,15.00,Holiday
7,16.349999999999999
2,1, 1, 1, 0,17,15.00,30.00,Holiday
7,16.0
2,1, 1, 1, 0,17,30.00,45.00,Holiday
7,15.650000000000003
2,1, 1, 1, 0,17,45.00,60.00,Holiday
7,15.3
2,1, 1, 1, 0,17, 0.00,60.00,Holiday
8,15.825
2,1, 1, 1, 0,18, 0.00,15.00,Holiday
7,14.925
2,1, 1, 1, 0,18,15.00,30.00,Holiday
7,14.55
2,1, 1, 1, 0,18,30.00,45.00,Holiday
7,14.175
2,1, 1, 1, 0,18,45.00,60.00,Holiday
7,13.8
2,1, 1, 1, 0,18, 0.00,60.00,Holiday
8,14.3625
2,1, 1, 1, 0,19, 0.00,15.00,Holiday
7,13.55
2,1, 1, 1, 0,19,15.00,30.00,Holiday
7,13.3
2,1, 1, 1, 0,19,30.00,45.00,Holiday
7,13.05
2,1, 1, 1, 0,19,45.00,60.00,Holiday
7,12.8
2,1, 1, 1, 0,19, 0.00,60.00,Holiday
8,13.175
2,1, 1, 1, 0,20, 0.00,15.00,Holiday
7,12.600000000000002
2,1, 1, 1, 0,20,15.00,30.00,Holiday
7,12.4
2,1, 1, 1, 0,20,30.00,45.00,Holiday
7,12.2
2,1, 1, 1, 0,20,45.00,60.00,Holiday
7,12.0
2,1, 1, 1, 0,20, 0.00,60.00,Holiday
8,12.3
2,1, 1, 1, 0,21, 0.00,15.00,Holiday
7,12.0
2,1, 1, 1, 0,21,15.00,30.00,Holiday
7,12.0
2,1, 1, 1, 0,21,30.00,45.00,Holiday
7,12.0
2,1, 1, 1, 0,21,45.00,60.00,Holiday
7,12.0
2,1, 1, 1, 0,21, 0.00,60.00,Holiday
8,12.0
2,1, 1, 1, 0,22, 0.00,15.00,Holiday
7,11.95
2,1, 1, 1, 0,22,15.00,30.00,Holiday
7,11.9
2,1, 1, 1, 0,22,30.00,45.00,Holiday
7,11.850000000000002
2,1, 1, 1, 0,22,45.00,60.00,Holiday
7,11.8
2,1, 1, 1, 0,22, 0.00,60.00,Holiday
8,11.875
2,1, 1, 1, 0,23, 0.00,15.00,Holiday
7,11.725000000000002
2,1, 1, 1, 0,23,15.00,30.00,Holiday
7,11.65
2,1, 1, 1, 0,23,30.00,45.00,Holiday
7,11.575
2,1, 1, 1, 0,23,45.00,60.00,Holiday
7,11.5
2,1, 1, 1, 0,23, 0.00,60.00,Holiday
8,11.6125
2,1, 1, 1, 0,24, 0.00,15.00,Holiday
7,11.45
2,1, 1, 1, 0,24,15.00,30.00,Holiday
7,11.4
2,1, 1, 1, 0,24,30.00,45.00,Holiday
7,11.350000000000002
2,1, 1, 1, 0,24,45.00,60.00,Holiday
7,11.3
2,1, 1, 1, 0,24, 0.00,60.00,Holiday
8,11.375
2,2, 1, 2, 0, 1, 0.00,15.00,Friday
7,11.250000000000002
2,2, 1, 2, 0, 1,15.00,30.00,Friday
7,11.2
2,2, 1, 2, 0, 1,30.00,45.00,Friday
7,11.149999999999999
2,2, 1, 2, 0, 1,45.00,60.00,Friday
7,11.1
2,2, 1, 2, 0, 1, 0.00,60.00,Friday
8,11.175
2,2, 1, 2, 0, 2, 0.00,15.00,Friday
7,11.075
2,2, 1, 2, 0, 2,15.00,30.00,Friday
7,11.05
2,2, 1, 2, 0, 2,30.00,45.00,Friday
7,11.025
2,2, 1, 2, 0, 2,45.00,60.00,Friday
7,11.0
2,2, 1, 2, 0, 2, 0.00,60.00,Friday
8,11.0375
2,2, 1, 2, 0, 3, 0.00,15.00,Friday
7,10.975
2,2, 1, 2, 0, 3,15.00,30.00,Friday
7,10.95
2,2, 1, 2, 0, 3,30.00,45.00,Friday
7,10.925
2,2, 1, 2, 0, 3,45.00,60.00,Friday
7,10.9
2,2, 1, 2, 0, 3, 0.00,60.00,Friday
8,10.937499999999999
2,2, 1, 2, 0, 4, 0.00,15.00,Friday
7,10.875
2,2, 1, 2, 0, 4,15.00,30.00,Friday
7,10.850000000000002
2,2, 1, 2, 0, 4,30.00,45.00,Friday
7,10.825000000000001
2,2, 1, 2, 0, 4,45.00,60.00,Friday
7,10.8
2,2, 1, 2, 0, 4, 0.00,60.00,Friday
8,10.837500000000003
2,2, 1, 2, 0, 5, 0.00,15.00,Friday
7,10.825000000000001
2,2, 1, 2, 0, 5,15.00,30.00,Friday
7,10.850000000000002
2,2, 1, 2, 0, 5,30.00,45.00,Friday
7,10.875
2,2, 1, 2, 0, 5,45.00,60.00,Friday
7,10.9
2,2, 1, 2, 0, 5, 0.00,60.00,Friday
8,10.8625
2,2, 1, 2, 0, 6, 0.00,15.00,Friday
7,10.925
2,2, 1, 2, 0, 6,15.00,30.00,Friday
7,10.95
2,2, 1, 2, 0, 6,30.00,45.00,Friday
7,10.975
2,2, 1, 2, 0, 6,45.00,60.00,Friday
7,11.0
2,2, 1, 2, 0, 6, 0.00,60.00,Friday
8,10.9625
2,2, 1, 2, 0, 7, 0.00,15.00,Friday
7,11.025
2,2, 1, 2, 0, 7,15.00,30.00,Friday
7,11.05
2,2, 1, 2, 0, 7,30.00,45.00,Friday
7,11.075
2,2, 1, 2, 0, 7,45.00,60.00,Friday
7,11.1
2,2, 1, 2, 0, 7, 0.00,60.00,Friday
8,11.062500000000002
2,2, 1, 2, 0, 8, 0.00,15.00,Friday
7,11.075
2,2, 1, 2, 0, 8,15.00,30.00,Friday
7,11.05
2,2, 1, 2, 0, 8,30.00,45.00,Friday
7,11.025
2,2, 1, 2, 0, 8,45.00,60.00,Friday
7,11.0
2,2, 1, 2, 0, 8, 0.00,60.00,Friday
8,11.0375
2,2, 1, 2, 0, 9, 0.00,15.00,Friday
7,11.0
2,2, 1, 2, 0, 9,15.00,30.00,Friday
7,11.0
2,2, 1, 2, 0, 9,30.00,45.00,Friday
7,11.0
2,2, 1, 2, 0, 9,45.00,60.00,Friday
7,11.0
2,2, 1, 2, 0, 9, 0.00,60.00,Friday
8,11.0
2,2, 1, 2, 0,10, 0.00,15.00,Friday
7,11.475
2,2, 1, 2, 0,10,15.00,30.00,Friday
7,11.95
2,2, 1, 2, 0,10,30.00,45.00,Friday
7,12.425
2,2, 1, 2, 0,10,45.00,60.00,Friday
7,12.9
2,2, 1, 2, 0,10, 0.00,60.00,Friday
8,12.187499999999999
2,2, 1, 2, 0,11, 0.00,15.00,Friday
7,13.450000000000001
2,2, 1, 2, 0,11,15.00,30.00,Friday
7,14.0
2,2, 1, 2, 0,11,30.00,45.00,Friday
7,14.549999999999999
2,2, 1, 2, 0,11,45.00,60.00,Friday
7,15.1
2,2, 1, 2, 0,11, 0.00,60.00,Friday
8,14.275
2,2, 1, 2, 0,12, 0.00,15.00,Friday
7,15.424999999999999
2,2, 1, 2, 0,12,15.00,30.00,Friday
7,15.75
2,2, 1, 2, 0,12,30.00,45.00,Friday
7,16.075
2,2, 1, 2, 0,12,45.00,60.00,Friday
7,16.4
2,2, 1, 2, 0,12, 0.00,60.00,Friday
8,15.9125
2,2, 1, 2, 0,13, 0.00,15.00,Friday
7,16.7
2,2, 1, 2, 0,13,15.00,30.00,Friday
7,17.0
2,2, 1, 2, 0,13,30.00,45.00,Friday
7,17.3
2,2, 1, 2, 0,13,45.00,60.00,Friday
7,17.6
2,2, 1, 2, 0,13, 0.00,60.00,Friday
8,17.15
2,2, 1, 2, 0,14, 0.00,15.00,Friday
7,17.6
2,2, 1, 2, 0,14,15.00,30.00,Friday
7,17.6
2,2, 1, 2, 0,14,30.00,45.00,Friday
7,17.6
2,2, 1, 2, 0,14,45.00,60.00,Friday
7,17.6
2,2, 1, 2, 0,14, 0.00,60.00,Friday
8,17.6
2,2, 1, 2, 0,15, 0.00,15.00,Friday
7,17.275000000000003
2,2, 1, 2, 0,15,15.00,30.00,Friday
7,16.950000000000004
2,2, 1, 2, 0,15,30.00,45.00,Friday
7,16.625
2,2, 1, 2, 0,15,45.00,60.00,Friday
7,16.3
2,2, 1, 2, 0,15, 0.00,60.00,Friday
8,16.7875
2,2, 1, 2, 0,16, 0.00,15.00,Friday
7,16.25
2,2, 1, 2, 0,16,15.00,30.00,Friday
7,16.200000000000004
2,2, 1, 2, 0,16,30.00,45.00,Friday
7,16.150000000000003
2,2, 1, 2, 0,16,45.00,60.00,Friday
7,16.1
2,2, 1, 2, 0,16, 0.00,60.00,Friday
8,16.175000000000006
2,2, 1, 2, 0,17, 0.00,15.00,Friday
7,15.475000000000002
2,2, 1, 2, 0,17,15.00,30.00,Friday
7,14.850000000000002
2,2, 1, 2, 0,17,30.00,45.00,Friday
7,14.225
2,2, 1, 2, 0,17,45.00,60.00,Friday
7,13.6
2,2, 1, 2, 0,17, 0.00,60.00,Friday
8,14.537500000000002
2,2, 1, 2, 0,18, 0.00,15.00,Friday
7,13.2
2,2, 1, 2, 0,18,15.00,30.00,Friday
7,12.8
2,2, 1, 2, 0,18,30.00,45.00,Friday
7,12.4
2,2, 1, 2, 0,18,45.00,60.00,Friday
7,12.0
2,2, 1, 2, 0,18, 0.00,60.00,Friday
8,12.6
2,2, 1, 2, 0,19, 0.00,15.00,Friday
7,11.875
2,2, 1, 2, 0,19,15.00,30.00,Friday
7,11.75
2,2, 1, 2, 0,19,30.00,45.00,Friday
7,11.625
2,2, 1, 2, 0,19,45.00,60.00,Friday
7,11.5
2,2, 1, 2, 0,19, 0.00,60.00,Friday
8,11.6875
2,2, 1, 2, 0,20, 0.00,15.00,Friday
7,11.425
2,2, 1, 2, 0,20,15.00,30.00,Friday
7,11.35
2,2, 1, 2, 0,20,30.00,45.00,Friday
7,11.274999999999999
2,2, 1, 2, 0,20,45.00,60.00,Friday
7,11.2
2,2, 1, 2, 0,20, 0.00,60.00,Friday
8,11.3125
2,2, 1, 2, 0,21, 0.00,15.00,Friday
7,11.399999999999999
2,2, 1, 2, 0,21,15.00,30.00,Friday
7,11.6
2,2, 1, 2, 0,21,30.00,45.00,Friday
7,11.8
2,2, 1, 2, 0,21,45.00,60.00,Friday
7,12.0
2,2, 1, 2, 0,21, 0.00,60.00,Friday
8,11.7
2,2, 1, 2, 0,22, 0.00,15.00,Friday
7,11.8
2,2, 1, 2, 0,22,15.00,30.00,Friday
7,11.6
2,2, 1, 2, 0,22,30.00,45.00,Friday
7,11.399999999999999
2,2, 1, 2, 0,22,45.00,60.00,Friday
7,11.2
2,2, 1, 2, 0,22, 0.00,60.00,Friday
8,11.5
2,2, 1, 2, 0,23, 0.00,15.00,Friday
7,10.999999999999999
2,2, 1, 2, 0,23,15.00,30.00,Friday
7,10.8
2,2, 1, 2, 0,23,30.00,45.00,Friday
7,10.600000000000002
2,2, 1, 2, 0,23,45.00,60.00,Friday
7,10.4
2,2, 1, 2, 0,23, 0.00,60.00,Friday
8,10.7
2,2, 1, 2, 0,24, 0.00,15.00,Friday
7,10.200000000000001
2,2, 1, 2, 0,24,15.00,30.00,Friday
7,10.0
2,2, 1, 2, 0,24,30.00,45.00,Friday
7,9.799999999999999
2,2, 1, 2, 0,24,45.00,60.00,Friday
7,9.6
2,2, 1, 2, 0,24, 0.00,60.00,Friday
8,9.9
2,3, 1, 3, 0, 1, 0.00,15.00,Saturday
7,9.45
2,3, 1, 3, 0, 1,15.00,30.00,Saturday
7,9.3
2,3, 1, 3, 0, 1,30.00,45.00,Saturday
7,9.15
2,3, 1, 3, 0, 1,45.00,60.00,Saturday
7,9.0
2,3, 1, 3, 0, 1, 0.00,60.00,Saturday
8,9.225
2,3, 1, 3, 0, 2, 0.00,15.00,Saturday
7,8.875
2,3, 1, 3, 0, 2,15.00,30.00,Saturday
7,8.75
2,3, 1, 3, 0, 2,30.00,45.00,Saturday
7,8.625
2,3, 1, 3, 0, 2,45.00,60.00,Saturday
7,8.5
2,3, 1, 3, 0, 2, 0.00,60.00,Saturday
8,8.6875
2,3, 1, 3, 0, 3, 0.00,15.00,Saturday
7,8.425
2,3, 1, 3, 0, 3,15.00,30.00,Saturday
7,8.35
2,3, 1, 3, 0, 3,30.00,45.00,Saturday
7,8.274999999999999
2,3, 1, 3, 0, 3,45.00,60.00,Saturday
7,8.2
2,3, 1, 3, 0, 3, 0.00,60.00,Saturday
8,8.3125
2,3, 1, 3, 0, 4, 0.00,15.00,Saturday
7,8.174999999999999
2,3, 1, 3, 0, 4,15.00,30.00,Saturday
7,8.149999999999999
2,3, 1, 3, 0, 4,30.00,45.00,Saturday
7,8.125
2,3, 1, 3, 0, 4,45.00,60.00,Saturday
7,8.1
2,3, 1, 3, 0, 4, 0.00,60.00,Saturday
8,8.1375
2,3, 1, 3, 0, 5, 0.00,15.00,Saturday
7,8.125
2,3, 1, 3, 0, 5,15.00,30.00,Saturday
7,8.149999999999999
2,3, 1, 3, 0, 5,30.00,45.00,Saturday
7,8.174999999999999
2,3, 1, 3, 0, 5,45.00,60.00,Saturday
7,8.2
2,3, 1, 3, 0, 5, 0.00,60.00,Saturday
8,8.162499999999998
2,3, 1, 3, 0, 6, 0.00,15.00,Saturday
7,8.274999999999999
2,3, 1, 3, 0, 6,15.00,30.00,Saturday
7,8.35
2,3, 1, 3, 0, 6,30.00,45.00,Saturday
7,8.425
2,3, 1, 3, 0, 6,45.00,60.00,Saturday
7,8.5
2,3, 1, 3, 0, 6, 0.00,60.00,Saturday
8,8.3875
2,3, 1, 3, 0, 7, 0.00,15.00,Saturday
7,8.625
2,3, 1, 3, 0, 7,15.00,30.00,Saturday
7,8.75
2,3, 1, 3, 0, 7,30.00,45.00,Saturday
7,8.875
2,3, 1, 3, 0, 7,45.00,60.00,Saturday
7,9.0
2,3, 1, 3, 0, 7, 0.00,60.00,Saturday
8,8.8125
2,3, 1, 3, 0, 8, 0.00,15.00,Saturday
7,9.05
2,3, 1, 3, 0, 8,15.00,30.00,Saturday
7,9.1
2,3, 1, 3, 0, 8,30.00,45.00,Saturday
7,9.149999999999999
2,3, 1, 3, 0, 8,45.00,60.00,Saturday
7,9.2
2,3, 1, 3, 0, 8, 0.00,60.00,Saturday
8,9.125
2,3, 1, 3, 0, 9, 0.00,15.00,Saturday
7,9.45
2,3, 1, 3, 0, 9,15.00,30.00,Saturday
7,9.7
2,3, 1, 3, 0, 9,30.00,45.00,Saturday
7,9.95
2,3, 1, 3, 0, 9,45.00,60.00,Saturday
7,10.2
2,3, 1, 3, 0, 9, 0.00,60.00,Saturday
8,9.825
2,3, 1, 3, 0,10, 0.00,15.00,Saturday
7,10.45
2,3, 1, 3, 0,10,15.00,30.00,Saturday
7,10.7
2,3, 1, 3, 0,10,30.00,45.00,Saturday
7,10.95
2,3, 1, 3, 0,10,45.00,60.00,Saturday
7,11.2
2,3, 1, 3, 0,10, 0.00,60.00,Saturday
8,10.825
2,3, 1, 3, 0,11, 0.00,15.00,Saturday
7,11.45
2,3, 1, 3, 0,11,15.00,30.00,Saturday
7,11.7
2,3, 1, 3, 0,11,30.00,45.00,Saturday
7,11.95
2,3, 1, 3, 0,11,45.00,60.00,Saturday
7,12.2
2,3, 1, 3, 0,11, 0.00,60.00,Saturday
8,11.825
2,3, 1, 3, 0,12, 0.00,15.00,Saturday
7,12.399999999999999
2,3, 1, 3, 0,12,15.00,30.00,Saturday
7,12.6
2,3, 1, 3, 0,12,30.00,45.00,Saturday
7,12.8
2,3, 1, 3, 0,12,45.00,60.00,Saturday
7,13.0
2,3, 1, 3, 0,12, 0.00,60.00,Saturday
8,12.7
2,3, 1, 3, 0,13, 0.00,15.00,Saturday
7,13.05
2,3, 1, 3, 0,13,15.00,30.00,Saturday
7,13.1
2,3, 1, 3, 0,13,30.00,45.00,Saturday
7,13.149999999999999
2,3, 1, 3, 0,13,45.00,60.00,Saturday
7,13.2
2,3, 1, 3, 0,13, 0.00,60.00,Saturday
8,13.125
2,3, 1, 3, 0,14, 0.00,15.00,Saturday
7,13.474999999999998
2,3, 1, 3, 0,14,15.00,30.00,Saturday
7,13.75
2,3, 1, 3, 0,14,30.00,45.00,Saturday
7,14.025000000000003
2,3, 1, 3, 0,14,45.00,60.00,Saturday
7,14.3
2,3, 1, 3, 0,14, 0.00,60.00,Saturday
8,13.8875
2,3, 1, 3, 0,15, 0.00,15.00,Saturday
7,14.475000000000002
2,3, 1, 3, 0,15,15.00,30.00,Saturday
7,14.65
2,3, 1, 3, 0,15,30.00,45.00,Saturday
7,14.825
2,3, 1, 3, 0,15,45.00,60.00,Saturday
7,15.0
2,3, 1, 3, 0,15, 0.00,60.00,Saturday
8,14.7375
2,3, 1, 3, 0,16, 0.00,15.00,Saturday
7,14.75
2,3, 1, 3, 0,16,15.00,30.00,Saturday
7,14.5
2,3, 1, 3, 0,16,30.00,45.00,Saturday
7,14.25
2,3, 1, 3, 0,16,45.00,60.00,Saturday
7,14.0
2,3, 1, 3, 0,16, 0.00,60.00,Saturday
8,14.375
2,3, 1, 3, 0,17, 0.00,15.00,Saturday
7,13.75
2,3, 1, 3, 0,17,15.00,30.00,Saturday
7,13.5
2,3, 1, 3, 0,17,30.00,45.00,Saturday
7,13.25
2,3, 1, 3, 0,17,45.00,60.00,Saturday
7,13.0
2,3, 1, 3, 0,17, 0.00,60.00,Saturday
8,13.375
2,3, 1, 3, 0,18, 0.00,15.00,Saturday
7,12.75
2,3, 1, 3, 0,18,15.00,30.00,Saturday
7,12.5
2,3, 1, 3, 0,18,30.00,45.00,Saturday
7,12.25
2,3, 1, 3, 0,18,45.00,60.00,Saturday
7,12.0
2,3, 1, 3, 0,18, 0.00,60.00,Saturday
8,12.375
2,3, 1, 3, 0,19, 0.00,15.00,Saturday
7,11.75
2,3, 1, 3, 0,19,15.00,30.00,Saturday
7,11.5
2,3, 1, 3, 0,19,30.00,45.00,Saturday
7,11.25
2,3, 1, 3, 0,19,45.00,60.00,Saturday
7,11.0
2,3, 1, 3, 0,19, 0.00,60.00,Saturday
8,11.375
2,3, 1, 3, 0,20, 0.00,15.00,Saturday
7,10.75
2,3, 1, 3, 0,20,15.00,30.00,Saturday
7,10.5
2,3, 1, 3, 0,20,30.00,45.00,Saturday
7,10.25
2,3, 1, 3, 0,20,45.00,60.00,Saturday
7,10.0
2,3, 1, 3, 0,20, 0.00,60.00,Saturday
8,10.375
2,3, 1, 3, 0,21, 0.00,15.00,Saturday
7,9.85
2,3, 1, 3, 0,21,15.00,30.00,Saturday
7,9.7
2,3, 1, 3, 0,21,30.00,45.00,Saturday
7,9.55
2,3, 1, 3, 0,21,45.00,60.00,Saturday
7,9.4
2,3, 1, 3, 0,21, 0.00,60.00,Saturday
8,9.625
2,3, 1, 3, 0,22, 0.00,15.00,Saturday
7,9.100000000000002
2,3, 1, 3, 0,22,15.00,30.00,Saturday
7,8.8
2,3, 1, 3, 0,22,30.00,45.00,Saturday
7,8.5
2,3, 1, 3, 0,22,45.00,60.00,Saturday
7,8.2
2,3, 1, 3, 0,22, 0.00,60.00,Saturday
8,8.65
2,3, 1, 3, 0,23, 0.00,15.00,Saturday
7,7.8999999999999999
2,3, 1, 3, 0,23,15.00,30.00,Saturday
7,7.6
2,3, 1, 3, 0,23,30.00,45.00,Saturday
7,7.3
2,3, 1, 3, 0,23,45.00,60.00,Saturday
7,7.0
2,3, 1, 3, 0,23, 0.00,60.00,Saturday
8,7.45
2,3, 1, 3, 0,24, 0.00,15.00,Saturday
7,6.725
2,3, 1, 3, 0,24,15.00,30.00,Saturday
7,6.45
2,3, 1, 3, 0,24,30.00,45.00,Saturday
7,6.175000000000001
2,3, 1, 3, 0,24,45.00,60.00,Saturday
7,5.9
2,3, 1, 3, 0,24, 0.00,60.00,Saturday
8,6.3125
2,4, 1, 4, 0, 1, 0.00,15.00,Sunday
7,5.675000000000001
2,4, 1, 4, 0, 1,15.00,30.00,Sunday
7,5.45
2,4, 1, 4, 0, 1,30.00,45.00,Sunday
7,5.225
2,4, 1, 4, 0, 1,45.00,60.00,Sunday
7,5.0
2,4, 1, 4, 0, 1, 0.00,60.00,Sunday
8,5.3375
2,4, 1, 4, 0, 2, 0.00,15.00,Sunday
7,4.825
2,4, 1, 4, 0, 2,15.00,30.00,Sunday
7,4.65
2,4, 1, 4, 0, 2,30.00,45.00,Sunday
7,4.475
2,4, 1, 4, 0, 2,45.00,60.00,Sunday
7,4.3
2,4, 1, 4, 0, 2, 0.00,60.00,Sunday
8,4.5625
2,4, 1, 4, 0, 3, 0.00,15.00,Sunday
7,4.175
2,4, 1, 4, 0, 3,15.00,30.00,Sunday
7,4.05
2,4, 1, 4, 0, 3,30.00,45.00,Sunday
7,3.925
2,4, 1, 4, 0, 3,45.00,60.00,Sunday
7,3.8
2,4, 1, 4, 0, 3, 0.00,60.00,Sunday
8,3.9875
2,4, 1, 4, 0, 4, 0.00,15.00,Sunday
7,3.7749999999999996
2,4, 1, 4, 0, 4,15.00,30.00,Sunday
7,3.75
2,4, 1, 4, 0, 4,30.00,45.00,Sunday
7,3.7250000000000007
2,4, 1, 4, 0, 4,45.00,60.00,Sunday
7,3.7
2,4, 1, 4, 0, 4, 0.00,60.00,Sunday
8,3.7375
2,4, 1, 4, 0, 5, 0.00,15.00,Sunday
7,3.7250000000000007
2,4, 1, 4, 0, 5,15.00,30.00,Sunday
7,3.75
2,4, 1, 4, 0, 5,30.00,45.00,Sunday
7,3.7749999999999996
2,4, 1, 4, 0, 5,45.00,60.00,Sunday
7,3.8
2,4, 1, 4, 0, 5, 0.00,60.00,Sunday
8,3.7625
2,4, 1, 4, 0, 6, 0.00,15.00,Sunday
7,3.925
2,4, 1, 4, 0, 6,15.00,30.00,Sunday
7,4.05
2,4, 1, 4, 0, 6,30.00,45.00,Sunday
7,4.175
2,4, 1, 4, 0, 6,45.00,60.00,Sunday
7,4.3
2,4, 1, 4, 0, 6, 0.00,60.00,Sunday
8,4.1125
2,4, 1, 4, 0, 7, 0.00,15.00,Sunday
7,4.475
2,4, 1, 4, 0, 7,15.00,30.00,Sunday
7,4.65
2,4, 1, 4, 0, 7,30.00,45.00,Sunday
7,4.825
2,4, 1, 4, 0, 7,45.00,60.00,Sunday
7,5.0
2,4, 1, 4, 0, 7, 0.00,60.00,Sunday
8,4.7375
2,4, 1, 4, 0, 8, 0.00,15.00,Sunday
7,5.05
2,4, 1, 4, 0, 8,15.00,30.00,Sunday
7,5.1
2,4, 1, 4, 0, 8,30.00,45.00,Sunday
7,5.15
2,4, 1, 4, 0, 8,45.00,60.00,Sunday
7,5.2
2,4, 1, 4, 0, 8, 0.00,60.00,Sunday
8,5.125
2,4, 1, 4, 0, 9, 0.00,15.00,Sunday
7,5.575
2,4, 1, 4, 0, 9,15.00,30.00,Sunday
7,5.95
2,4, 1, 4, 0, 9,30.00,45.00,Sunday
7,6.325
2,4, 1, 4, 0, 9,45.00,60.00,Sunday
7,6.7
2,4, 1, 4, 0, 9, 0.00,60.00,Sunday
8,6.1375
2,4, 1, 4, 0,10, 0.00,15.00,Sunday
7,7.375
2,4, 1, 4, 0,10,15.00,30.00,Sunday
7,8.05
2,4, 1, 4, 0,10,30.00,45.00,Sunday
7,8.725000000000002
2,4, 1, 4, 0,10,45.00,60.00,Sunday
7,9.4
2,4, 1, 4, 0,10, 0.00,60.00,Sunday
8,8.387500000000001
2,4, 1, 4, 0,11, 0.00,15.00,Sunday
7,9.9
2,4, 1, 4, 0,11,15.00,30.00,Sunday
7,10.4
2,4, 1, 4, 0,11,30.00,45.00,Sunday
7,10.9
2,4, 1, 4, 0,11,45.00,60.00,Sunday
7,11.4
2,4, 1, 4, 0,11, 0.00,60.00,Sunday
8,10.65
2,4, 1, 4, 0,12, 0.00,15.00,Sunday
7,11.8
2,4, 1, 4, 0,12,15.00,30.00,Sunday
7,12.2
2,4, 1, 4, 0,12,30.00,45.00,Sunday
7,12.6
2,4, 1, 4, 0,12,45.00,60.00,Sunday
7,13.0
2,4, 1, 4, 0,12, 0.00,60.00,Sunday
8,12.4
2,4, 1, 4, 0,13, 0.00,15.00,Sunday
7,13.5
2,4, 1, 4, 0,13,15.00,30.00,Sunday
7,14.0
2,4, 1, 4, 0,13,30.00,45.00,Sunday
7,14.5
2,4, 1, 4, 0,13,45.00,60.00,Sunday
7,15.0
2,4, 1, 4, 0,13, 0.00,60.00,Sunday
8,14.25
2,4, 1, 4, 0,14, 0.00,15.00,Sunday
7,15.25
2,4, 1, 4, 0,14,15.00,30.00,Sunday
7,15.5
2,4, 1, 4, 0,14,30.00,45.00,Sunday
7,15.75
2,4, 1, 4, 0,14,45.00,60.00,Sunday
7,16.0
2,4, 1, 4, 0,14, 0.00,60.00,Sunday
8,15.625
2,4, 1, 4, 0,15, 0.00,15.00,Sunday
7,16.0
2,4, 1, 4, 0,15,15.00,30.00,Sunday
7,16.0
2,4, 1, 4, 0,15,30.00,45.00,Sunday
7,16.0
2,4, 1, 4, 0,15,45.00,60.00,Sunday
7,16.0
2,4, 1, 4, 0,15, 0.00,60.00,Sunday
8,16.0
2,4, 1, 4, 0,16, 0.00,15.00,Sunday
7,15.825
2,4, 1, 4, 0,16,15.00,30.00,Sunday
7,15.65
2,4, 1, 4, 0,16,30.00,45.00,Sunday
7,15.475000000000002
2,4, 1, 4, 0,16,45.00,60.00,Sunday
7,15.3
2,4, 1, 4, 0,16, 0.00,60.00,Sunday
8,15.5625
2,4, 1, 4, 0,17, 0.00,15.00,Sunday
7,14.975000000000002
2,4, 1, 4, 0,17,15.00,30.00,Sunday
7,14.65
2,4, 1, 4, 0,17,30.00,45.00,Sunday
7,14.325
2,4, 1, 4, 0,17,45.00,60.00,Sunday
7,14.0
2,4, 1, 4, 0,17, 0.00,60.00,Sunday
8,14.4875
2,4, 1, 4, 0,18, 0.00,15.00,Sunday
7,13.725
2,4, 1, 4, 0,18,15.00,30.00,Sunday
7,13.45
2,4, 1, 4, 0,18,30.00,45.00,Sunday
7,13.175
2,4, 1, 4, 0,18,45.00,60.00,Sunday
7,12.9
2,4, 1, 4, 0,18, 0.00,60.00,Sunday
8,13.312499999999999
2,4, 1, 4, 0,19, 0.00,15.00,Sunday
7,12.625
2,4, 1, 4, 0,19,15.00,30.00,Sunday
7,12.350000000000002
2,4, 1, 4, 0,19,30.00,45.00,Sunday
7,12.075000000000001
2,4, 1, 4, 0,19,45.00,60.00,Sunday
7,11.8
2,4, 1, 4, 0,19, 0.00,60.00,Sunday
8,12.212500000000003
2,4, 1, 4, 0,20, 0.00,15.00,Sunday
7,11.350000000000002
2,4, 1, 4, 0,20,15.00,30.00,Sunday
7,10.9
2,4, 1, 4, 0,20,30.00,45.00,Sunday
7,10.45
2,4, 1, 4, 0,20,45.00,60.00,Sunday
7,10.0
2,4, 1, 4, 0,20, 0.00,60.00,Sunday
8,10.675
2,4, 1, 4, 0,21, 0.00,15.00,Sunday
7,10.125
2,4, 1, 4, 0,21,15.00,30.00,Sunday
7,10.25
2,4, 1, 4, 0,21,30.00,45.00,Sunday
7,10.375
2,4, 1, 4, 0,21,45.00,60.00,Sunday
7,10.5
2,4, 1, 4, 0,21, 0.00,60.00,Sunday
8,10.3125
2,4, 1, 4, 0,22, 0.00,15.00,Sunday
7,10.125
2,4, 1, 4, 0,22,15.00,30.00,Sunday
7,9.75
2,4, 1, 4, 0,22,30.00,45.00,Sunday
7,9.375
2,4, 1, 4, 0,22,45.00,60.00,Sunday
7,9.0
2,4, 1, 4, 0,22, 0.00,60.00,Sunday
8,9.5625
2,4, 1, 4, 0,23, 0.00,15.00,Sunday
7,8.6
2,4, 1, 4, 0,23,15.00,30.00,Sunday
7,8.2
2,4, 1, 4, 0,23,30.00,45.00,Sunday
7,7.800000000000001
2,4, 1, 4, 0,23,45.00,60.00,Sunday
7,7.4
2,4, 1, 4, 0,23, 0.00,60.00,Sunday
8,8.0
2,4, 1, 4, 0,24, 0.00,15.00,Sunday
7,7.050000000000001
2,4, 1, 4, 0,24,15.00,30.00,Sunday
7,6.7
2,4, 1, 4, 0,24,30.00,45.00,Sunday
7,6.35
2,4, 1, 4, 0,24,45.00,60.00,Sunday
7,6.0
2,4, 1, 4, 0,24, 0.00,60.00,Sunday
8,6.525
2,5, 1, 5, 0, 1, 0.00,15.00,Monday
7,5.7
2,5, 1, 5, 0, 1,15.00,30.00,Monday
7,5.4
2,5, 1, 5, 0, 1,30.00,45.00,Monday
7,5.1
2,5, 1, 5, 0, 1,45.00,60.00,Monday
7,4.8
2,5, 1, 5, 0, 1, 0.00,60.00,Monday
8,5.250000000000001
2,5, 1, 5, 0, 2, 0.00,15.00,Monday
7,4.55
2,5, 1, 5, 0, 2,15.00,30.00,Monday
7,4.3
2,5, 1, 5, 0, 2,30.00,45.00,Monday
7,4.05
2,5, 1, 5, 0, 2,45.00,60.00,Monday
7,3.8
2,5, 1, 5, 0, 2, 0.00,60.00,Monday
8,4.175
2,5, 1, 5, 0, 3, 0.00,15.00,Monday
7,3.6499999999999996
2,5, 1, 5, 0, 3,15.00,30.00,Monday
7,3.5
2,5, 1, 5, 0, 3,30.00,45.00,Monday
7,3.3500000000000007
2,5, 1, 5, 0, 3,45.00,60.00,Monday
7,3.2
2,5, 1, 5, 0, 3, 0.00,60.00,Monday
8,3.425
2,5, 1, 5, 0, 4, 0.00,15.00,Monday
7,3.1500000000000005
2,5, 1, 5, 0, 4,15.00,30.00,Monday
7,3.1
2,5, 1, 5, 0, 4,30.00,45.00,Monday
7,3.05
2,5, 1, 5, 0, 4,45.00,60.00,Monday
7,3.0
2,5, 1, 5, 0, 4, 0.00,60.00,Monday
8,3.075
2,5, 1, 5, 0, 5, 0.00,15.00,Monday
7,3.05
2,5, 1, 5, 0, 5,15.00,30.00,Monday
7,3.1
2,5, 1, 5, 0, 5,30.00,45.00,Monday
7,3.1500000000000005
2,5, 1, 5, 0, 5,45.00,60.00,Monday
7,3.2
2,5, 1, 5, 0, 5, 0.00,60.00,Monday
8,3.125
2,5, 1, 5, 0, 6, 0.00,15.00,Monday
7,3.3500000000000007
2,5, 1, 5, 0, 6,15.00,30.00,Monday
7,3.5
2,5, 1, 5, 0, 6,30.00,45.00,Monday
7,3.6499999999999996
2,5, 1, 5, 0, 6,45.00,60.00,Monday
7,3.8
2,5, 1, 5, 0, 6, 0.00,60.00,Monday
8,3.575
2,5, 1, 5, 0, 7, 0.00,15.00,Monday
7,4.05
2,5, 1, 5, 0, 7,15.00,30.00,Monday
7,4.3
2,5, 1, 5, 0, 7,30.00,45.00,Monday
7,4.55
2,5, 1, 5, 0, 7,45.00,60.00,Monday
7,4.8
2,5, 1, 5, 0, 7, 0.00,60.00,Monday
8,4.425
2,5, 1, 5, 0, 8, 0.00,15.00,Monday
7,5.1
2,5, 1, 5, 0, 8,15.00,30.00,Monday
7,5.4
2,5, 1, 5, 0, 8,30.00,45.00,Monday
7,5.7
2,5, 1, 5, 0, 8,45.00,60.00,Monday
7,6.0
2,5, 1, 5, 0, 8, 0.00,60.00,Monday
8,5.55
2,5, 1, 5, 0, 9, 0.00,15.00,Monday
7,6.5
2,5, 1, 5, 0, 9,15.00,30.00,Monday
7,7.0
2,5, 1, 5, 0, 9,30.00,45.00,Monday
7,7.5
2,5, 1, 5, 0, 9,45.00,60.00,Monday
7,8.0
2,5, 1, 5, 0, 9, 0.00,60.00,Monday
8,7.25
2,5, 1, 5, 0,10, 0.00,15.00,Monday
7,8.75
2,5, 1, 5, 0,10,15.00,30.00,Monday
7,9.5
2,5, 1, 5, 0,10,30.00,45.00,Monday
7,10.25
2,5, 1, 5, 0,10,45.00,60.00,Monday
7,11.0
2,5, 1, 5, 0,10, 0.00,60.00,Monday
8,9.875
2,5, 1, 5, 0,11, 0.00,15.00,Monday
7,11.5
2,5, 1, 5, 0,11,15.00,30.00,Monday
7,12.0
2,5, 1, 5, 0,11,30.00,45.00,Monday
7,12.5
2,5, 1, 5, 0,11,45.00,60.00,Monday
7,13.0
2,5, 1, 5, 0,11, 0.00,60.00,Monday
8,12.25
2,5, 1, 5, 0,12, 0.00,15.00,Monday
7,13.625
2,5, 1, 5, 0,12,15.00,30.00,Monday
7,14.25
2,5, 1, 5, 0,12,30.00,45.00,Monday
7,14.875
2,5, 1, 5, 0,12,45.00,60.00,Monday
7,15.5
2,5, 1, 5, 0,12, 0.00,60.00,Monday
8,14.5625
2,5, 1, 5, 0,13, 0.00,15.00,Monday
7,16.175
2,5, 1, 5, 0,13,15.00,30.00,Monday
7,16.85
2,5, 1, 5, 0,13,30.00,45.00,Monday
7,17.525
2,5, 1, 5, 0,13,45.00,60.00,Monday
7,18.2
2,5, 1, 5, 0,13, 0.00,60.00,Monday
8,17.1875
2,5, 1, 5, 0,14, 0.00,15.00,Monday
7,18.45
2,5, 1, 5, 0,14,15.00,30.00,Monday
7,18.7
2,5, 1, 5, 0,14,30.00,45.00,Monday
7,18.95
2,5, 1, 5, 0,14,45.00,60.00,Monday
7,19.2
2,5, 1, 5, 0,14, 0.00,60.00,Monday
8,18.825
2,5, 1, 5, 0,15, 0.00,15.00,Monday
7,19.4
2,5, 1, 5, 0,15,15.00,30.00,Monday
7,19.6
2,5, 1, 5, 0,15,30.00,45.00,Monday
7,19.8
2,5, 1, 5, 0,15,45.00,60.00,Monday
7,20.0
2,5, 1, 5, 0,15, 0.00,60.00,Monday
8,19.7
2,5, 1, 5, 0,16, 0.00,15.00,Monday
7,20.0
2,5, 1, 5, 0,16,15.00,30.00,Monday
7,20.0
2,5, 1, 5, 0,16,30.00,45.00,Monday
7,20.0
2,5, 1, 5, 0,16,45.00,60.00,Monday
7,20.0
2,5, 1, 5, 0,16, 0.00,60.00,Monday
8,20.0
2,5, 1, 5, 0,17, 0.00,15.00,Monday
7,19.875
2,5, 1, 5, 0,17,15.00,30.00,Monday
7,19.75
2,5, 1, 5, 0,17,30.00,45.00,Monday
7,19.625
2,5, 1, 5, 0,17,45.00,60.00,Monday
7,19.5
2,5, 1, 5, 0,17, 0.00,60.00,Monday
8,19.6875
2,5, 1, 5, 0,18, 0.00,15.00,Monday
7,19.125
2,5, 1, 5, 0,18,15.00,30.00,Monday
7,18.75
2,5, 1, 5, 0,18,30.00,45.00,Monday
7,18.375
2,5, 1, 5, 0,18,45.00,60.00,Monday
7,18.0
2,5, 1, 5, 0,18, 0.00,60.00,Monday
8,18.5625
2,5, 1, 5, 0,19, 0.00,15.00,Monday
7,17.35
2,5, 1, 5, 0,19,15.00,30.00,Monday
7,16.7
2,5, 1, 5, 0,19,30.00,45.00,Monday
7,16.05
2,5, 1, 5, 0,19,45.00,60.00,Monday
7,15.4
2,5, 1, 5, 0,19, 0.00,60.00,Monday
8,16.375
2,5, 1, 5, 0,20, 0.00,15.00,Monday
7,14.825000000000001
2,5, 1, 5, 0,20,15.00,30.00,Monday
7,14.25
2,5, 1, 5, 0,20,30.00,45.00,Monday
7,13.674999999999999
2,5, 1, 5, 0,20,45.00,60.00,Monday
7,13.1
2,5, 1, 5, 0,20, 0.00,60.00,Monday
8,13.9625
2,5, 1, 5, 0,21, 0.00,15.00,Monday
7,12.575
2,5, 1, 5, 0,21,15.00,30.00,Monday
7,12.05
2,5, 1, 5, 0,21,30.00,45.00,Monday
7,11.525
2,5, 1, 5, 0,21,45.00,60.00,Monday
7,11.0
2,5, 1, 5, 0,21, 0.00,60.00,Monday
8,11.7875
2,5, 1, 5, 0,22, 0.00,15.00,Monday
7,10.875
2,5, 1, 5, 0,22,15.00,30.00,Monday
7,10.75
2,5, 1, 5, 0,22,30.00,45.00,Monday
7,10.625
2,5, 1, 5, 0,22,45.00,60.00,Monday
7,10.5
2,5, 1, 5, 0,22, 0.00,60.00,Monday
8,10.6875
2,5, 1, 5, 0,23, 0.00,15.00,Monday
7,10.35
2,5, 1, 5, 0,23,15.00,30.00,Monday
7,10.2
2,5, 1, 5, 0,23,30.00,45.00,Monday
7,10.05
2,5, 1, 5, 0,23,45.00,60.00,Monday
7,9.9
2,5, 1, 5, 0,23, 0.00,60.00,Monday
8,10.125
2,5, 1, 5, 0,24, 0.00,15.00,Monday
7,9.775
2,5, 1, 5, 0,24,15.00,30.00,Monday
7,9.65
2,5, 1, 5, 0,24,30.00,45.00,Monday
7,9.525
2,5, 1, 5, 0,24,45.00,60.00,Monday
7,9.4
2,5, 1, 5, 0,24, 0.00,60.00,Monday
8,9.5875
2,6, 1, 6, 0, 1, 0.00,15.00,Tuesday
7,9.3
2,6, 1, 6, 0, 1,15.00,30.00,Tuesday
7,9.2
2,6, 1, 6, 0, 1,30.00,45.00,Tuesday
7,9.1
2,6, 1, 6, 0, 1,45.00,60.00,Tuesday
7,9.0
2,6, 1, 6, 0, 1, 0.00,60.00,Tuesday
8,9.15
2,6, 1, 6, 0, 2, 0.00,15.00,Tuesday
7,8.925
2,6, 1, 6, 0, 2,15.00,30.00,Tuesday
7,8.85
2,6, 1, 6, 0, 2,30.00,45.00,Tuesday
7,8.774999999999999
2,6, 1, 6, 0, 2,45.00,60.00,Tuesday
7,8.7
2,6, 1, 6, 0, 2, 0.00,60.00,Tuesday
8,8.8125
2,6, 1, 6, 0, 3, 0.00,15.00,Tuesday
7,8.649999999999999
2,6, 1, 6, 0, 3,15.00,30.00,Tuesday
7,8.6
2,6, 1, 6, 0, 3,30.00,45.00,Tuesday
7,8.55
2,6, 1, 6, 0, 3,45.00,60.00,Tuesday
7,8.5
2,6, 1, 6, 0, 3, 0.00,60.00,Tuesday
8,8.575
2,6, 1, 6, 0, 4, 0.00,15.00,Tuesday
7,8.475
2,6, 1, 6, 0, 4,15.00,30.00,Tuesday
7,8.45
2,6, 1, 6, 0, 4,30.00,45.00,Tuesday
7,8.425
2,6, 1, 6, 0, 4,45.00,60.00,Tuesday
7,8.4
2,6, 1, 6, 0, 4, 0.00,60.00,Tuesday
8,8.4375
2,6, 1, 6, 0, 5, 0.00,15.00,Tuesday
7,8.425
2,6, 1, 6, 0, 5,15.00,30.00,Tuesday
7,8.45
2,6, 1, 6, 0, 5,30.00,45.00,Tuesday
7,8.475
2,6, 1, 6, 0, 5,45.00,60.00,Tuesday
7,8.5
2,6, 1, 6, 0, 5, 0.00,60.00,Tuesday
8,8.4625
2,6, 1, 6, 0, 6, 0.00,15.00,Tuesday
7,8.55
2,6, 1, 6, 0, 6,15.00,30.00,Tuesday
7,8.6
2,6, 1, 6, 0, 6,30.00,45.00,Tuesday
7,8.649999999999999
2,6, 1, 6, 0, 6,45.00,60.00,Tuesday
7,8.7
2,6, 1, 6, 0, 6, 0.00,60.00,Tuesday
8,8.625
2,6, 1, 6, 0, 7, 0.00,15.00,Tuesday
7,8.774999999999999
2,6, 1, 6, 0, 7,15.00,30.00,Tuesday
7,8.85
2,6, 1, 6, 0, 7,30.00,45.00,Tuesday
7,8.925
2,6, 1, 6, 0, 7,45.00,60.00,Tuesday
7,9.0
2,6, 1, 6, 0, 7, 0.00,60.00,Tuesday
8,8.8875
2,6, 1, 6, 0, 8, 0.00,15.00,Tuesday
7,8.875
2,6, 1, 6, 0, 8,15.00,30.00,Tuesday
7,8.75
2,6, 1, 6, 0, 8,30.00,45.00,Tuesday
7,8.625
2,6, 1, 6, 0, 8,45.00,60.00,Tuesday
7,8.5
2,6, 1, 6, 0, 8, 0.00,60.00,Tuesday
8,8.6875
2,6, 1, 6, 0, 9, 0.00,15.00,Tuesday
7,8.625
2,6, 1, 6, 0, 9,15.00,30.00,Tuesday
7,8.75
2,6, 1, 6, 0, 9,30.00,45.00,Tuesday
7,8.875
2,6, 1, 6, 0, 9,45.00,60.00,Tuesday
7,9.0
2,6, 1, 6, 0, 9, 0.00,60.00,Tuesday