Program Version,EnergyPlus, Version 9.0.1-bb7ca4f0da, YMD=2019.12.18 15:58
1,5,Environment Title[],Latitude[deg],Longitude[deg],Time Zone[],Elevation[m]
2,8,Day of Simulation[],Month[],Day of Month[],DST Indicator[1=yes 0=no],Hour[],StartMinute[],EndMinute[],DayType
3,5,Cumulative Day of Simulation[],Month[],Day of Month[],DST Indicator[1=yes 0=no],DayType  ! When Daily Meters Requested
4,2,Cumulative Days of Simulation[],Month[]  ! When Monthly Meters Requested
5,1,Cumulative Days of Simulation[] ! When Run Period Meters Requested
6,1,Calendar Year of Simulation[] ! When Annual Meters Requested
11,1,Electricity:Facility [J] !Hourly
47,1,InteriorLights:Electricity [J] !Hourly
4122,1,Fans:Electricity [J] !Hourly
1533,1,InteriorEquipment:Gas [J] !Hourly
4480,1,Pumps:Electricity [J] !Hourly
993,1,InteriorEquipment:Electricity [J] !Hourly
4244,1,Heating:Electricity [J] !Hourly
4355,1,Cooling:Electricity [J] !Hourly
2228,1,WaterSystems:Electricity [J] !Hourly
1497,1,Gas:Facility [J] !Hourly
4231,1,Heating:Gas [J] !Hourly
2366,1,WaterSystems:Gas [J] !Hourly
1557,1,Receptacle:InteriorEquipment:Gas [J] !Hourly
1017,1,Receptacle:InteriorEquipment:Electricity [J] !Hourly
71,1,ComplianceLtg:InteriorLights:Electricity [J] !Hourly
346,1,NonComplianceLtg:InteriorLights:Electricity [J] !Hourly
4134,1,General:Fans:Electricity [J] !Hourly
4171,1,ProcessMotors:Fans:Electricity [J] !Hourly
End of Data Dictionary
1,TORRANCE_722955_CZ2010,  33.80,-118.33,  -8.00,  27.00
2,1, 1, 1, 0, 1, 0.00,60.00,Holiday
11,55708372.72452068
47,24156278.99999996
71,4835078.999999999
346,19321199.999999968
993,18722069.99999997
1017,18722069.99999997
1497,1040418.5567212388
1533,0.0
1557,0.0
2228,796886.7609049787
2366,1040418.5567212388
4122,12033136.963615733
4134,8488078.333418435
4171,3545058.6301972984
4231,0.0
4244,0.0
4355,0.0
4480,0.0
2,1, 1, 1, 0, 2, 0.00,60.00,Holiday
11,56504962.386181239
47,24156278.99999996
71,4835078.999999999
346,19321199.999999968
993,18722069.99999997
1017,18722069.99999997
1497,1040339.3445153359
1533,0.0
1557,0.0
2228,1593476.422565537
2366,1040339.3445153359
4122,12033136.963615733
4134,8488078.333418435
4171,3545058.6301972984
4231,0.0
4244,0.0
4355,0.0
4480,0.0
2,1, 1, 1, 0, 3, 0.00,60.00,Holiday
11,56504960.83935212
47,24156278.99999996
71,4835078.999999999
346,19321199.999999968
993,18722069.99999997
1017,18722069.99999997
1497,1226878.3914682747
1533,0.0
1557,0.0
2228,1593474.8757364217
2366,1226878.3914682747
4122,12033136.963615733
4134,8488078.333418435
4171,3545058.6301972984
4231,0.0
4244,0.0
4355,0.0
4480,0.0
2,1, 1, 1, 0, 4, 0.00,60.00,Holiday
11,55702026.07412945
47,24156278.99999996
71,4835078.999999999
346,19321199.999999968
993,18722069.99999997
1017,18722069.99999997
1497,1108414.6536643843
1533,0.0
1557,0.0
2228,790540.1105137389
2366,1108414.6536643843
4122,12033136.963615733
4134,8488078.333418435
4171,3545058.6301972984
4231,0.0
4244,0.0
4355,0.0
4480,0.0
2,1, 1, 1, 0, 5, 0.00,60.00,Holiday
11,56492628.08369979
47,24156278.99999996
71,4835078.999999999
346,19321199.999999968
993,18722069.99999997
1017,18722069.99999997
1497,1035140.6050164674
1533,0.0
1557,0.0
2228,1581142.1200840837
2366,1035140.6050164674
4122,12033136.963615733
4134,8488078.333418435
4171,3545058.6301972984
4231,0.0
4244,0.0
4355,0.0
4480,0.0
2,1, 1, 1, 0, 6, 0.00,60.00,Holiday
11,114892538.44016785
47,52754678.99999992
71,4835078.999999999
346,47919599.99999992
993,47320469.999999929
1017,47320469.999999929
1497,65589985.2098759
1533,0.0
1557,0.0
2228,857460.0274677933
2366,1041851.0455512483
4122,13919838.077434393
4134,10374779.447237095
4171,3545058.6301972984
4231,64548134.16432464
4244,11556.691859574627
4355,0.0
4480,28534.64340610857
2,1, 1, 1, 0, 7, 0.00,60.00,Holiday
11,165857903.68324349
47,74203478.99999988
71,4835078.999999999
346,69368399.9999999
993,68769269.9999999
1017,68769269.9999999
1497,269875729.5813303
1533,28597212.921243654
1557,28597212.921243654
2228,1526235.2775665308
2366,1300528.209251055
4122,21320721.994143446
4134,10374779.447237095
4171,3545058.6301972984
4231,239977988.45083563
4244,9837.767970159819
4355,0.0
4480,28359.64356347512
2,1, 1, 1, 0, 8, 0.00,60.00,Holiday
11,165291587.42822425
47,74179441.45002774
71,4811041.450027847
346,69368399.9999999
993,68769269.9999999
1017,68769269.9999999
1497,230893745.76946569
1533,28597212.921243654
1557,28597212.921243654
2228,2448107.859520352
2366,1054938.8284424917
4122,19856887.12807123
4134,10374779.447237095
4171,3545058.6301972984
4231,201241594.0197795
4244,9556.486030306023
4355,0.0
4480,28324.5045746026
2,1, 1, 1, 0, 9, 0.00,60.00,Holiday
11,183935910.84495846
47,77621585.82705572
71,8253185.827055847
346,69368399.9999999
993,72641339.99999988
1017,72641339.99999988
1497,526248343.8684776
1533,0.0
1557,0.0
2228,2067827.8874820537
2366,1331637.7035990444
4122,30464433.823343398
4134,22657722.27309604
4171,3545058.6301972984
4231,524916706.1648785
4244,94227.9020805662
4355,0.0
4480,1046495.4049967147
2,1, 1, 1, 0,10, 0.00,60.00,Holiday
11,174460509.66666503
47,77299955.7273951
71,7931555.727395236
346,69368399.9999999
993,72641339.99999988
1017,72641339.99999988
1497,325257733.30443677
1533,0.0
1557,0.0
2228,2956618.596462994
2366,1491133.2301749355
4122,21314529.859983937
4134,16450235.958917004
4171,3545058.6301972984
4231,323766600.0742618
4244,61578.25713620965
4355,0.0
4480,186487.22568674095
2,1, 1, 1, 0,11, 0.00,60.00,Holiday
11,175815610.08452345
47,75774189.89623179
71,27854589.89623183
346,47919599.99999992
993,74424959.99999996
1017,74424959.99999996
1497,174737751.4594645
1533,0.0
1557,0.0
2228,5385913.108556173
2366,1913230.3016731987
4122,20162810.78818573
4134,16410600.470344177
4171,3545058.6301972984
4231,172824521.15779127
4244,31224.10735525428
4355,0.0
4480,36512.18419452291
2,1, 1, 1, 0,12, 0.00,60.00,Holiday
11,176227969.02250264
47,75790591.66574966
71,27870991.665749704
346,47919599.99999992
993,74424959.99999996
1017,74424959.99999996
1497,111130252.89505047
1533,11438885.168497468
1557,11438885.168497468
2228,6010947.637410958
2366,2314162.6740917547
4122,19955659.100541478
4134,16410600.470344177
4171,3545058.6301972984
4231,97377205.05246122
4244,17434.40561849558
4355,0.0
4480,28376.213182060936
2,1, 1, 1, 0,13, 0.00,60.00,Holiday
11,205159065.47139067
47,85719933.29444415
71,37800333.29444418
346,47919599.99999992
993,89913239.99999997
1017,89913239.99999997
1497,27934138.85233377
1533,11438885.168497468
1557,11438885.168497468
2228,6492346.285739676
2366,2117759.85522309
4122,20039529.0206711
4134,16410600.470344177
4171,3545058.630197298
4231,14377493.828613215
4244,2574.145140543076
4355,2957221.775891023
4480,34220.94950415666
2,1, 1, 1, 0,14, 0.00,60.00,Holiday
11,213428239.38187973
47,85726506.4122977
71,37806906.412297729
346,47919599.99999992
993,89913239.99999997
1017,89913239.99999997
1497,10762659.601076428
1533,0.0
1557,0.0
2228,7225881.550458414
2366,2437857.9534179226
4122,20438355.327210338
4134,16410600.470344177
4171,3545058.6301972984
4231,8324801.6476585059
4244,1490.4717027009224
4355,10087778.413492829
4480,34987.20671775958
2,1, 1, 1, 0,15, 0.00,60.00,Holiday
11,212234743.78515549
47,86212327.17447907
71,38292727.1744791
346,47919599.99999992
993,89913239.99999997
1017,89913239.99999997
1497,9802770.240786529
1533,0.0
1557,0.0
2228,6068722.603248278
2366,2356306.258686913
4122,20391728.197502804
4134,16410600.470344177
4171,3545058.6301972984
4231,7446463.982099615
4244,1333.214209809169
4355,9612294.828770077
4480,35097.76694547609
2,1, 1, 1, 0,16, 0.00,60.00,Holiday
11,212780665.13028968
47,86220802.30983857
71,38301202.30983859
346,47919599.99999992
993,89913239.99999997
1017,89913239.99999997
1497,8988609.19911867
1533,0.0
1557,0.0
2228,7152021.236460753
2366,2133477.8318903727
4122,20239420.977822015
4134,16423830.396831632
4171,3545058.6301972984
4231,6855131.3672282979
4244,1227.3420741532112
4355,9218779.70606115
4480,35173.55803303432
2,1, 1, 1, 0,17, 0.00,60.00,Holiday
11,210832531.48837999
47,89241839.72887975
71,41322239.72887976
346,47919599.99999992
993,89913239.99999997
1017,89913239.99999997
1497,37538809.76350928
1533,28597212.921243654
1557,28597212.921243654
2228,6949388.114706229
2366,2421510.8033228025
4122,20046314.552551904
4134,16438527.964156647
4171,3545058.6301972984
4231,6520086.038942829
4244,1167.355590142257
4355,4645365.271885173
4480,35216.46476680701
2,1, 1, 1, 0,18, 0.00,60.00,Holiday
11,179473481.97506247
47,78647111.99999994
71,30727511.99999999
346,47919599.99999992
993,74424959.99999996
1017,74424959.99999996
1497,59038786.414540488
1533,28597212.921243654
1557,28597212.921243654
2228,6407988.877274519
2366,2084725.021724551
4122,19955659.100541478
4134,16410600.470344177
4171,3545058.6301972984
4231,28356848.471572289
4244,5077.007478796106
4355,0.0
4480,32684.989767714116
2,1, 1, 1, 0,19, 0.00,60.00,Holiday
11,231337962.6603816
47,106749035.99999982
71,15931835.999999995
346,90817199.99999984
993,101834279.99999984
1017,101834279.99999984
1497,129310413.92914807
1533,28597212.921243654
1557,28597212.921243654
2228,4639810.631434592
2366,1988603.105086139
4122,18068957.986722813
4134,14523899.356525513
4171,3545058.6301972984
4231,98724597.90281827
4244,17675.642707482988
4355,0.0
4480,28202.39951687883
2,1, 1, 1, 0,20, 0.00,60.00,Holiday
11,260646135.57991184
47,124250678.9999998
71,4835078.999999999
346,119415599.9999998
993,118816469.99999982
1017,118816469.99999982
1497,1722110.7595057258
1533,0.0
1557,0.0
2228,5545849.616296328
2366,1722110.7595057258
4122,12033136.963615733
4134,8488078.333418435
4171,3545058.6301972984
4231,0.0
4244,0.0
4355,0.0
4480,0.0
2,1, 1, 1, 0,21, 0.00,60.00,Holiday
11,287398447.14115789
47,138549878.9999998
71,4835078.999999999
346,133714799.99999979
993,133115669.99999979
1017,133115669.99999979
1497,1747840.3427908659
1533,0.0
1557,0.0
2228,3699761.177542388
2366,1747840.3427908659
4122,12033136.963615733
4134,8488078.333418435
4171,3545058.6301972984
4231,0.0
4244,0.0
4355,0.0
4480,0.0
2,1, 1, 1, 0,22, 0.00,60.00,Holiday
11,258529527.41959939
47,124250678.9999998
71,4835078.999999999
346,119415599.9999998
993,118816469.99999982
1017,118816469.99999982
1497,1563785.3696048717
1533,0.0
1557,0.0
2228,3429241.455983902
2366,1563785.3696048717
4122,12033136.963615733
4134,8488078.333418435
4171,3545058.6301972984
4231,0.0
4244,0.0
4355,0.0
4480,0.0
2,1, 1, 1, 0,23, 0.00,60.00,Holiday
11,199535398.11979915
47,95652278.99999984
71,4835078.999999999
346,90817199.99999984
993,90218069.99999985
1017,90218069.99999985
1497,1318995.6231301134
1533,0.0
1557,0.0
2228,1631912.1561835979
2366,1318995.6231301134
4122,12033136.963615733
4134,8488078.333418435
4171,3545058.6301972984
4231,0.0
4244,0.0
4355,0.0
4480,0.0
2,1, 1, 1, 0,24, 0.00,60.00,Holiday
11,113689364.67226042
47,52754678.99999992
71,4835078.999999999
346,47919599.99999992
993,47320469.999999929
1017,47320469.999999929
1497,1035353.4155495127
1533,0.0
1557,0.0
2228,1581078.7086447145
2366,1035353.4155495127
4122,12033136.963615733
4134,8488078.333418435
4171,3545058.6301972984
4231,0.0
4244,0.0
4355,0.0
4480,0.0
2,2, 1, 2, 0, 1, 0.00,60.00,Friday
11,55690043.816246587
47,24156278.99999996
71,4835078.999999999
346,19321199.999999968
993,18722069.99999997
1017,18722069.99999997
1497,1027829.7060569058
1533,0.0
1557,0.0
2228,778557.8526308863
2366,1027829.7060569058
4122,12033136.963615733
4134,8488078.333418435
4171,3545058.6301972984
4231,0.0
4244,0.0
4355,0.0
4480,0.0
2,2, 1, 2, 0, 2, 0.00,60.00,Friday
11,55696031.94226615
47,24156278.99999996
71,4835078.999999999
346,19321199.999999968
993,18722069.99999997
1017,18722069.99999997
1497,1032637.3107174194
1533,0.0
1557,0.0
2228,784545.9786504444
2366,1032637.3107174194
4122,12033136.963615733
4134,8488078.333418435
4171,3545058.6301972984
4231,0.0
4244,0.0
4355,0.0
4480,0.0
2,2, 1, 2, 0, 3, 0.00,60.00,Friday
11,55696025.26382911
47,24156278.99999996
71,4835078.999999999
346,19321199.999999968
993,18722069.99999997
1017,18722069.99999997
1497,1032742.6864675325
1533,0.0
1557,0.0
2228,784539.3002134076
2366,1032742.6864675325
4122,12033136.963615733
4134,8488078.333418435
4171,3545058.6301972984
4231,0.0
4244,0.0
4355,0.0
4480,0.0
2,2, 1, 2, 0, 4, 0.00,60.00,Friday
11,55689990.011879879
47,24156278.99999996
71,4835078.999999999
346,19321199.999999968
993,18722069.99999997
1017,18722069.99999997
1497,1028006.8571705641
1533,0.0
1557,0.0
2228,778504.0482641734
2366,1028006.8571705641
4122,12033136.963615733
4134,8488078.333418435
4171,3545058.6301972984
4231,0.0
4244,0.0
4355,0.0
4480,0.0
2,2, 1, 2, 0, 5, 0.00,60.00,Friday
11,56468489.692173067
47,24156278.99999996
71,4835078.999999999
346,19321199.999999968
993,18722069.99999997
1017,18722069.99999997
1497,1027982.9706326668
1533,0.0
1557,0.0
2228,1557003.7285573716
2366,1027982.9706326668
4122,12033136.963615733
4134,8488078.333418435
4171,3545058.6301972984
4231,0.0
4244,0.0
4355,0.0
4480,0.0
2,2, 1, 2, 0, 6, 0.00,60.00,Friday
11,116498884.67718649
47,53890838.99999992
71,5971238.999999999
346,47919599.99999992
993,47871269.999999929
1017,47871269.999999929
1497,43196626.179601389
1533,0.0
1557,0.0
2228,778553.0232330426
2366,1034302.3580711717
4122,13919838.077434393
4134,10374779.447237095
4171,3545058.6301972984
4231,42162323.82153021
4244,7548.73848481172
4355,0.0
4480,30835.838034280227
2,2, 1, 2, 0, 7, 0.00,60.00,Friday
11,175821376.74456869
47,80361638.99999988
71,5971238.999999999
346,74390399.99999988
993,69320069.9999999
1017,69320069.9999999
1497,378782269.1638343
1533,28597212.921243654
1557,28597212.921243654
2228,778593.7795068278
2366,1032317.1387774433
4122,24627883.619012208
4134,20352902.080561874
4171,3545058.630197298
4231,349152739.10381326
4244,71618.32357064521
4355,0.0
4480,661572.0224790957
2,2, 1, 2, 0, 8, 0.00,60.00,Friday
11,202245656.25596608
47,95965536.25097385
71,21575136.250973979
346,74390399.99999988
993,83139479.99999988
1017,83139479.99999988
1497,275971926.58683219
1533,28882321.086319496
1557,28882321.086319496
2228,2551324.4061880304
2366,1775269.3897141417
4122,20466745.88675283
4134,16410600.470344177
4171,3545058.6301972984
4231,245314336.11079855
4244,46574.165031749435
4355,0.0
4480,75995.54701961557
2,2, 1, 2, 0, 9, 0.00,60.00,Friday
11,263815825.06112237
47,125802875.02318743
71,51412475.02318755
346,74390399.99999988
993,112981499.99999987
1017,112981499.99999987
1497,178593244.77670936
1533,285108.16507584266
1557,285108.16507584266
2228,4560206.149248555
2366,2307628.850852059
4122,20407512.877219887
4134,16410600.470344177
4171,3545058.6301972984
4231,176000507.76078148
4244,30522.273876564985
4355,0.0
4480,33208.73758992731
2,2, 1, 2, 0,10, 0.00,60.00,Friday
11,321349688.5436879
47,151118158.90467198
71,76727758.90467201
346,74390399.99999988
993,143958059.99999995
1017,143958059.99999995
1497,90898333.36553493
1533,285108.16507584266
1557,285108.16507584266
2228,5955940.638197945
2366,2837943.5244127588
4122,20274389.43221303
4134,16458453.386293166
4171,3545058.630197298
4231,87775281.67604633
4244,14520.730136400238
4355,0.0
4480,28618.838468523394
2,2, 1, 2, 0,11, 0.00,60.00,Friday
11,279870429.37378898
47,129391052.6349885
71,76449452.63498852
346,52941599.9999999
993,122509259.99999996
1017,122509259.99999996
1497,33326531.29641416
1533,513194.69713651677
1557,513194.69713651677
2228,7708984.766948689
2366,3088841.6405110617
4122,20190059.649768279
4134,16476519.456502445
4171,3545058.6301972984
4231,29724494.95876658
4244,4577.798979941021
4355,33501.99899184234
4480,32992.52411176286
2,2, 1, 2, 0,12, 0.00,60.00,Friday
11,288216094.0817454
47,129214478.45419963
71,76272878.45419964
346,52941599.9999999
993,122509259.99999996
1017,122509259.99999996
1497,21556843.782126067
1533,11952079.865633984
1557,11952079.865633984
2228,11232896.202218067
2366,3841167.302439486
4122,20252752.901456544
4134,16699471.158221037
4171,3545058.6301972984
4231,5763596.614052599
4244,1001.1184133958686
4355,4970330.14397555
4480,35375.26148223525
2,2, 1, 2, 0,13, 0.00,60.00,Friday
11,295562061.2594302
47,128907681.66862466
71,75966081.66862467
346,52941599.9999999
993,122509259.99999996
1017,122509259.99999996
1497,20583822.476201409
1533,11952079.865633984
1557,11952079.865633984
2228,11790542.862154685
2366,4107382.665129887
4122,20335982.46911644
4134,16790923.83891914
4171,3545058.6301972984
4231,4524359.945437534
4244,810.0409783823303
4355,11982262.966345188
4480,35521.25221085475
2,2, 1, 2, 0,14, 0.00,60.00,Friday
11,297662585.190811
47,128028893.98722202
71,75087293.98722203
346,52941599.9999999
993,122509259.99999996
1017,122509259.99999996
1497,7659461.15463998
1533,513194.69713651677
1557,513194.69713651677
2228,11102761.53717431
2366,4318032.716566255
4122,20643012.78170176
4134,17097954.151504458
4171,3545058.6301972984
4231,2828233.7409372075
4244,506.36670252396126
4355,15342399.528037552
4480,35750.989972856754
2,2, 1, 2, 0,15, 0.00,60.00,Friday
11,293555138.7115397
47,128304489.37582474
71,75362889.37582477
346,52941599.9999999
993,122509259.99999996
1017,122509259.99999996
1497,6002331.775063144
1533,427662.2476137639
1557,427662.2476137639
2228,9643568.188870682
2366,3285930.5195461336
4122,21074176.17228845
4134,17529117.542091155
4171,3545058.6301972984
4231,2288739.0079032455
4244,409.7756163484155
4355,11987410.564339385
4480,35824.63460011416
2,2, 1, 2, 0,16, 0.00,60.00,Friday
11,288028322.6688268
47,126531085.95182607
71,73589485.95182607
346,52941599.9999999
993,122509259.99999996
1017,122509259.99999996
1497,5124830.2033547549
1533,427662.2476137639
1557,427662.2476137639
2228,9099154.554625584
2366,3101832.506562624
4122,21694680.755885874
4134,18149622.125688577
4171,3545058.6301972984
4231,1595335.4491783672
4244,285.6287085212197
4355,8157936.11335719
4480,35919.66442361752
2,2, 1, 2, 0,17, 0.00,60.00,Friday
11,283315121.13827326
47,130103579.20163416
71,77161979.20163419
346,52941599.9999999
993,122509259.99999996
1017,122509259.99999996
1497,37135870.156400959
1533,29024875.168857416
1557,29024875.168857416
2228,8137609.1381008629
2366,3506972.696975901
4122,21714871.537425437
4134,18169812.90722814
4171,3545058.6301972984
4231,4604022.290567639
4244,824.303717149279
4355,813454.6667528759
4480,35522.29064278833
2,2, 1, 2, 0,18, 0.00,60.00,Friday
11,272238670.67991688
47,123776342.99999996
71,70834742.99999997
346,52941599.9999999
993,118102859.99999997
1017,118102859.99999997
1497,65347533.94200593
1533,29024875.168857416
1557,29024875.168857416
2228,9223240.27868533
2366,3051283.455792453
4122,21098028.132349224
4134,17552969.50215193
4171,3545058.6301972984
4231,33271375.317356059
4244,5956.903902258038
4355,0.0
4480,32242.364980112972
2,2, 1, 2, 0,19, 0.00,60.00,Friday
11,306813201.06580236
47,143344268.99999986
71,47505068.99999999
346,95839199.99999984
993,135564839.99999989
1017,135564839.99999989
1497,117042317.10517511
1533,28597212.921243654
1557,28597212.921243654
2228,7698125.669290838
2366,2922849.3699364948
4122,20162222.967190736
4134,16617164.336993434
4171,3545058.6301972984
4231,85522254.81399496
4244,15311.896444678645
4355,0.0
4480,28431.532876188234
2,2, 1, 2, 0,20, 0.00,60.00,Friday
11,363245731.6741733
47,171942668.99999974
71,47505068.99999999
346,124437599.9999998
993,164163239.99999974
1017,164163239.99999974
1497,97057341.77148748
1533,0.0
1557,0.0
2228,7082960.671335969
2366,2444943.7457151596
4122,20011828.392928237
4134,16466769.762730938
4171,3545058.6301972984
4231,94612398.0257723
4244,16939.39482891508
4355,0.0
4480,28094.21508041868
2,2, 1, 2, 0,21, 0.00,60.00,Friday
11,375898626.87338337
47,180270629.9999997
71,41533829.999999988
346,138736799.9999998
993,169616699.99999974
1017,169616699.99999974
1497,89378324.23325445
1533,0.0
1557,0.0
2228,6011223.945715316
2366,2258655.6164290357
4122,19956211.781457459
4134,16411153.151260162
4171,3545058.6301972984
4231,87119668.61682543
4244,15597.897261441927
4355,0.0
4480,28263.248949368957
2,2, 1, 2, 0,22, 0.00,60.00,Friday
11,294377251.2163013
47,143777915.9999998
71,19340315.999999998
346,124437599.9999998
993,132085079.9999998
1017,132085079.9999998
1497,27735197.25364338
1533,0.0
1557,0.0
2228,4557097.948473335
2366,1873766.532307024
4122,13919838.077434393
4134,10374779.447237095
4171,3545058.6301972984
4231,25861430.721336355
4244,4630.228119892056
4355,0.0
4480,32688.96227391376
2,2, 1, 2, 0,23, 0.00,60.00,Friday
11,204023631.80961094
47,96788438.99999984
71,5971238.999999999
346,90817199.99999984
993,90768869.99999985
1017,90768869.99999985
1497,33667025.74888389
1533,0.0
1557,0.0
2228,2508835.7455314418
2366,1340714.1786607733
4122,13919838.077434393
4134,10374779.447237095
4171,3545058.6301972984
4231,32326311.57022312
4244,5787.699778007665
4355,0.0
4480,31861.286867262854
2,2, 1, 2, 0,24, 0.00,60.00,Friday
11,115639336.0229252
47,52754678.99999992
71,4835078.999999999
346,47919599.99999992
993,47320469.999999929
1017,47320469.999999929
1497,39817678.67103038
1533,0.0
1557,0.0
2228,1606425.4735257268
2366,1309281.238647621
4122,13919838.077434393
4134,10374779.447237095
4171,3545058.6301972984
4231,38508397.432382758
4244,6894.539848342316
4355,0.0
4480,31028.932116759497
2,3, 1, 3, 0, 1, 0.00,60.00,Saturday
11,57182333.82827084
47,24156278.99999996
71,4835078.999999999
346,19321199.999999968
993,18722069.99999997
1017,18722069.99999997
1497,1241831.9307704673
1533,0.0
1557,0.0
2228,2270847.864655138
2366,1241831.9307704673
4122,12033136.963615733
4134,8488078.333418435
4171,3545058.6301972984
4231,0.0
4244,0.0
4355,0.0
4480,0.0
2,3, 1, 3, 0, 2, 0.00,60.00,Saturday
11,56738779.42151501
47,24156278.99999996
71,4835078.999999999
346,19321199.999999968
993,18722069.99999997
1017,18722069.99999997
1497,1143065.5777108619
1533,0.0
1557,0.0
2228,1827293.4578993153
2366,1143065.5777108619
4122,12033136.963615733
4134,8488078.333418435
4171,3545058.6301972984
4231,0.0
4244,0.0
4355,0.0
4480,0.0
2,3, 1, 3, 0, 3, 0.00,60.00,Saturday
11,56517965.36036654
47,24156278.99999996
71,4835078.999999999
346,19321199.999999968
993,18722069.99999997
1017,18722069.99999997
1497,1309183.1458559843
1533,0.0
1557,0.0
2228,1606479.3967508316
2366,1309183.1458559843
4122,12033136.963615733
4134,8488078.333418435
4171,3545058.6301972984
4231,0.0
4244,0.0
4355,0.0
4480,0.0
2,3, 1, 3, 0, 4, 0.00,60.00,Saturday
11,55706362.70993989
47,24156278.99999996
71,4835078.999999999
346,19321199.999999968
993,18722069.99999997
1017,18722069.99999997
1497,1037370.73891226
1533,0.0
1557,0.0
2228,794876.746324195
2366,1037370.73891226
4122,12033136.963615733
4134,8488078.333418435
4171,3545058.6301972984
4231,0.0
4244,0.0
4355,0.0
4480,0.0
2,3, 1, 3, 0, 5, 0.00,60.00,Saturday
11,56488522.88945407
47,24156278.99999996
71,4835078.999999999
346,19321199.999999968
993,18722069.99999997
1017,18722069.99999997
1497,1037606.6361587833
1533,0.0
1557,0.0
2228,1577036.9258383727
2366,1037606.6361587833
4122,12033136.963615733
4134,8488078.333418435
4171,3545058.6301972984
4231,0.0
4244,0.0
4355,0.0
4480,0.0
2,3, 1, 3, 0, 6, 0.00,60.00,Saturday
11,116134206.15421246
47,52754678.99999992
71,4835078.999999999
346,47919599.99999992
993,47320469.999999929
1017,47320469.999999929
1497,97613346.77631457
1533,0.0
1557,0.0
2228,1581320.5627323446
2366,1304920.335114697
4122,14310905.408003506
4134,10765846.777806208
4171,3545058.6301972984
4231,96308426.44119987
4244,17839.88177701799
4355,110505.24029387643
4480,38486.06140575271
2,3, 1, 3, 0, 7, 0.00,60.00,Saturday
11,179481367.69258548
47,80361638.99999988
71,5971238.999999999
346,74390399.99999988
993,69320069.9999999
1017,69320069.9999999
1497,520992504.3624364
1533,28597212.921243654
1557,28597212.921243654
2228,796973.8635968292
2366,1046807.1306658132
4122,28409482.076234595
4134,18594718.330334639
4171,3545058.6301972984
4231,491348484.31052699
4244,73128.01373614212
4355,0.0
4480,520074.73901802886
2,3, 1, 3, 0, 8, 0.00,60.00,Saturday
11,184042371.83621023
47,83688798.92140433
71,9298398.921404455
346,74390399.99999988
993,73192139.99999988
1017,73192139.99999988
1497,380203204.2747509
1533,28597212.921243654
1557,28597212.921243654
2228,4438428.426061461
2366,1816080.5979713829
4122,22529248.061735419
4134,16410600.470344177
4171,3545058.6301972984
4231,349789910.75553587
4244,60205.83419703692
4355,0.0
4480,133550.59281196548
2,3, 1, 3, 0, 9, 0.00,60.00,Saturday
11,217736898.66881828
47,101387825.63920994
71,26997425.63921008
346,74390399.99999988
993,90883619.99999987
1017,90883619.99999987
1497,238496888.62337704
1533,285108.16507584266
1557,285108.16507584266
2228,4600007.054013331
2366,1895990.7846986484
4122,20771964.15371748
4134,16410600.470344177
4171,3545058.6301972984
4231,236315789.67360256
4244,42340.15310005857
4355,0.0
4480,51141.66877743974
2,3, 1, 3, 0,10, 0.00,60.00,Saturday
11,257267665.79297555
47,118129641.29183455
71,43739241.29183467
346,74390399.99999988
993,114116039.99999988
1017,114116039.99999988
1497,137650746.7234664
1533,285108.16507584266
1557,285108.16507584266
2228,4729951.327271656
2366,2388293.856741622
4122,20239906.26509487
4134,16457942.01875922
4171,3545058.630197298
4231,134977344.7016489
4244,23131.18919360514
4355,0.0
4480,28995.719580897472
2,3, 1, 3, 0,11, 0.00,60.00,Saturday
11,260810929.3644021
47,116633864.14372987
71,63692264.14372988
346,52941599.9999999
993,115899659.99999997
1017,115899659.99999997
1497,94600307.20214087
1533,513194.69713651677
1557,513194.69713651677
2228,7931236.692529294
2366,2708978.782454209
4122,20276512.63467139
4134,16557294.193219128
4171,3545058.630197298
4231,91378133.72255014
4244,15569.754305357814
4355,25772.83588027719
4480,28313.303285909926
2,3, 1, 3, 0,12, 0.00,60.00,Saturday
11,264278942.33058275
47,116675499.25223956
71,63733899.252239558
346,52941599.9999999
993,115899659.99999997
1017,115899659.99999997
1497,72776576.61773747
1533,11952079.865633984
1557,11952079.865633984
2228,10442195.056596192
2366,3378073.4154752867
4122,20546458.53313723
4134,16852028.23390455
4171,3545058.6301972984
4231,57446423.336628209
4244,10224.218276198066
4355,674939.9143718338
4480,29965.355961789246
2,3, 1, 3, 0,13, 0.00,60.00,Saturday
11,262326802.42601855
47,113301033.31370425
71,60359433.31370427
346,52941599.9999999
993,114247259.99999997
1017,114247259.99999997
1497,52228474.88477499
1533,11952079.865633984
1557,11952079.865633984
2228,11511392.00856739
2366,3582631.462717269
4122,21244514.783337743
4134,17299543.66381686
4171,3545058.6301972984
4231,36693763.55642374
4244,6569.647970150823
4355,1984198.6648539468
4480,31834.007585065745
2,3, 1, 3, 0,14, 0.00,60.00,Saturday
11,263581564.89017979
47,113136511.95844782
71,60194911.95844783
346,52941599.9999999
993,114247259.99999997
1017,114247259.99999997
1497,13919582.376568605
1533,513194.69713651677
1557,513194.69713651677
2228,10935633.657199905
2366,3336899.8928615266
4122,22186758.870959768
4134,18029663.607456618
4171,3545058.6301972984
4231,10069487.786570562
4244,1802.8401446414408
4355,3038785.173742481
4480,34812.389685243616
2,3, 1, 3, 0,15, 0.00,60.00,Saturday
11,263397799.72858448
47,113059239.68685636
71,60117639.686856377
346,52941599.9999999
993,114247259.99999997
1017,114247259.99999997
1497,6197723.72185525
1533,427662.2476137639
1557,427662.2476137639
2228,9521572.173849285
2366,2999586.6582225908
4122,22974327.075151847
4134,18712873.124588878
4171,3545058.6301972984
4231,2770474.816018896
4244,496.02555004816829
4355,3559139.49691355
4480,35765.27026345491
2,3, 1, 3, 0,16, 0.00,60.00,Saturday
11,262908135.74363018
47,113417569.44539035
71,60475969.445390369
346,52941599.9999999
993,114247259.99999997
1017,114247259.99999997
1497,7548000.02220891
1533,427662.2476137639
1557,427662.2476137639
2228,9407928.38357162
2366,2891529.044886908
4122,23231323.833957077
4134,19169711.2499703
4171,3545058.6301972984
4231,4228808.729708239
4244,757.1255165626159
4355,2567720.342031823
4480,35576.613162812486
2,3, 1, 3, 0,17, 0.00,60.00,Saturday
11,263797861.0484239
47,117625082.24073221
71,64683482.24073224
346,52941599.9999999
993,114247259.99999997
1017,114247259.99999997
1497,42058030.36657974
1533,29024875.168857416
1557,29024875.168857416
2228,8298506.300093115
2366,2956411.681293858
4122,22924052.587305238
4134,19244974.08348685
4171,3545058.6301972984
4231,10076743.516428467
4244,1804.1392098316235
4355,666322.398422487
4480,34833.38266100059
2,3, 1, 3, 0,18, 0.00,60.00,Saturday
11,255922541.20701606
47,111937382.99999996
71,64017782.99999998
346,47919599.99999992
993,113145659.99999997
1017,113145659.99999997
1497,60576022.34998779
1533,28597212.921243654
1557,28597212.921243654
2228,9037715.529895453
2366,2874845.643964216
4122,21763909.33913188
4134,18218850.708934584
4171,3545058.6301972984
4231,29103963.784779919
4244,5210.7709340856049
4355,0.0
4480,32662.56705471513
2,3, 1, 3, 0,19, 0.00,60.00,Saturday
11,282171831.77350726
47,128942549.99999987
71,38125349.999999988
346,90817199.99999984
993,125066699.99999988
1017,125066699.99999988
1497,125157939.97614853
1533,28597212.921243654
1557,28597212.921243654
2228,8153835.92597077
2366,2548657.847853871
4122,19963693.232258064
4134,16418634.602060765
4171,3545058.6301972984
4231,94012069.207051
4244,16831.912013769368
4355,0.0
4480,28220.703264757267
2,3, 1, 3, 0,20, 0.00,60.00,Saturday
11,305995091.21095529
47,142745273.9999998
71,23329673.999999994
346,119415599.9999998
993,138176819.9999998
1017,138176819.9999998
1497,92924170.31631097
1533,0.0
1557,0.0
2228,6959687.736390825
2366,2425417.4812016075
4122,18068957.986722813
4134,14523899.356525513
4171,3545058.6301972984
4231,90498752.83510937
4244,16202.888181533348
4355,0.0
4480,28148.599660267802
2,3, 1, 3, 0,21, 0.00,60.00,Saturday
11,333421310.4532406
47,157044473.99999977
71,23329673.999999994
346,133714799.99999979
993,152476019.99999977
1017,152476019.99999977
1497,126252318.36783502
1533,0.0
1557,0.0
2228,5781004.13100704
2366,2044173.0239047874
4122,18068957.986722813
4134,14523899.356525513
4171,3545058.6301972984
4231,124208145.34393023
4244,22238.21464048479
4355,0.0
4480,28616.120870439445
2,3, 1, 3, 0,22, 0.00,60.00,Saturday
11,272921185.94104769