Program Version,EnergyPlus, Version 9.0.1-bb7ca4f0da, YMD=2019.12.17 17:22
1,5,Environment Title[],Latitude[deg],Longitude[deg],Time Zone[],Elevation[m]
2,8,Day of Simulation[],Month[],Day of Month[],DST Indicator[1=yes 0=no],Hour[],StartMinute[],EndMinute[],DayType
3,5,Cumulative Day of Simulation[],Month[],Day of Month[],DST Indicator[1=yes 0=no],DayType  ! When Daily Meters Requested
4,2,Cumulative Days of Simulation[],Month[]  ! When Monthly Meters Requested
5,1,Cumulative Days of Simulation[] ! When Run Period Meters Requested
6,1,Calendar Year of Simulation[] ! When Annual Meters Requested
1557,1,Receptacle:InteriorEquipment:Gas [J] !Hourly
47,1,InteriorLights:Electricity [J] !Hourly
4162,1,ProcessMotors:Fans:Electricity [J] !Hourly
1017,1,Receptacle:InteriorEquipment:Electricity [J] !Hourly
993,1,InteriorEquipment:Electricity [J] !Hourly
4236,1,Heating:Gas [J] !Hourly
11,1,Electricity:Facility [J] !Hourly
4114,1,Fans:Electricity [J] !Hourly
4473,1,Pumps:Electricity [J] !Hourly
4210,1,Heating:Electricity [J] !Hourly
4348,1,Cooling:Electricity [J] !Hourly
1533,1,InteriorEquipment:Gas [J] !Hourly
2228,1,WaterSystems:Electricity [J] !Hourly
1497,1,Gas:Facility [J] !Hourly
2366,1,WaterSystems:Gas [J] !Hourly
71,1,ComplianceLtg:InteriorLights:Electricity [J] !Hourly
346,1,NonComplianceLtg:InteriorLights:Electricity [J] !Hourly
4126,1,General:Fans:Electricity [J] !Hourly
End of Data Dictionary
1,SANTA-MARIA_723940_CZ2010,  34.92,-120.47,  -8.00,  77.00
2,1, 1, 1, 0, 1, 0.00,60.00,Holiday
11,66341911.105835247
47,24156278.99999996
71,4835078.999999999
346,19321199.999999968
993,18722069.99999997
1017,18722069.99999997
1497,1043088.8974549362
1533,0.0
1557,0.0
2228,805855.6604249028
2366,1043088.8974549362
4114,22657706.44541039
4126,8458341.339612134
4162,14199365.105798256
4210,0.0
4236,0.0
4348,0.0
4473,0.0
2,1, 1, 1, 0, 2, 0.00,60.00,Holiday
11,67162843.21485949
47,24156278.99999996
71,4835078.999999999
346,19321199.999999968
993,18722069.99999997
1017,18722069.99999997
1497,1388358.1911985772
1533,0.0
1557,0.0
2228,1611508.8099042783
2366,1042942.5953074574
4114,22672985.40495526
4126,8458341.339612134
4162,14199365.105798256
4210,0.0
4236,345415.5958911198
4348,0.0
4473,0.0
2,1, 1, 1, 0, 3, 0.00,60.00,Holiday
11,67337373.34426438
47,24156278.99999996
71,4835078.999999999
346,19321199.999999968
993,18722069.99999997
1017,18722069.99999997
1497,5598266.295777622
1533,0.0
1557,0.0
2228,1611351.0284115682
2366,1303635.6994489548
4114,22847673.315852848
4126,8458341.339612134
4162,14199365.105798256
4210,0.0
4236,4294630.596328666
4348,0.0
4473,0.0
2,1, 1, 1, 0, 4, 0.00,60.00,Holiday
11,67615357.26513313
47,24156278.99999996
71,4835078.999999999
346,19321199.999999968
993,18722069.99999997
1017,18722069.99999997
1497,21086901.749248238
1533,0.0
1557,0.0
2228,1192444.4004496639
2366,1037500.186553645
4114,23544563.864683525
4126,8458341.339612134
4162,14199365.105798256
4210,0.0
4236,20049401.562694588
4348,0.0
4473,0.0
2,1, 1, 1, 0, 5, 0.00,60.00,Holiday
11,68363998.94225225
47,24156278.99999996
71,4835078.999999999
346,19321199.999999968
993,18722069.99999997
1017,18722069.99999997
1497,37735880.96761022
1533,0.0
1557,0.0
2228,1204652.593346446
2366,1037742.5706137177
4114,24280997.348905844
4126,8458341.339612134
4162,14199365.105798256
4210,0.0
4236,36698138.396996509
4348,0.0
4473,0.0
2,1, 1, 1, 0, 6, 0.00,60.00,Holiday
11,150378617.3266084
47,52754678.99999992
71,4835078.999999999
346,47919599.99999992
993,47320469.999999929
1017,47320469.999999929
1497,32072697.336260417
1533,0.0
1557,0.0
2228,1598352.0798724143
2366,1305714.2435251177
4114,29809791.70642676
4126,14274757.996941627
4162,14199365.105798256
4210,18820669.75118593
4236,30766983.092735299
4348,0.0
4473,74654.78912334047
2,1, 1, 1, 0, 7, 0.00,60.00,Holiday
11,209980086.48591949
47,74203478.99999988
71,4835078.999999999
346,69368399.9999999
993,68769269.9999999
1017,68769269.9999999
1497,554786039.1614513
1533,28597212.921243654
1557,28597212.921243654
2228,805876.8356498412
2366,1043030.9356305342
4114,51443829.67911791
4126,14086118.41846029
4162,14199365.105798256
4210,14680755.528308679
4236,525145795.3045772
4348,0.0
4473,76875.44284323149
2,1, 1, 1, 0, 8, 0.00,60.00,Holiday
11,199165307.96996645
47,74190137.78121677
71,4821737.7812168919
346,69368399.9999999
993,68769269.9999999
1017,68769269.9999999
1497,304655854.4333354
1533,28597212.921243654
1557,28597212.921243654
2228,2479398.3021162769
2366,1323475.4448012438
4114,40571142.17850071
4126,14287472.942453273
4162,14199365.105798256
4210,13055853.575131365
4236,274735166.0672905
4348,0.0
4473,99506.13300142695
2,1, 1, 1, 0, 9, 0.00,60.00,Holiday
11,212922941.1823202
47,77715052.05606933
71,8346652.056069458
346,69368399.9999999
993,72641339.99999988
1017,72641339.99999988
1497,568186950.5440271
1533,0.0
1557,0.0
2228,2522597.4122621829
2366,1337246.1864167229
4114,47078971.43583318
4126,24694795.745031269
4162,14199365.105798256
4210,12040262.057290607
4236,566849704.3576104
4348,0.0
4473,924718.2208650515
2,1, 1, 1, 0,10, 0.00,60.00,Holiday
11,198622235.48861564
47,77514199.07520443
71,8145799.075204559
346,69368399.9999999
993,72641339.99999988
1017,72641339.99999988
1497,370494462.0513103
1533,0.0
1557,0.0
2228,2567046.2697051868
2366,1350943.946317664
4114,35230597.906066019
4126,16581929.482437898
4162,14199365.105798256
4210,10381411.62019615
4236,369143518.1049927
4348,0.0
4473,287640.6174439616
2,1, 1, 1, 0,11, 0.00,60.00,Holiday
11,199833286.98542194
47,76602531.55735249
71,28682931.557352544
346,47919599.99999992
993,74424959.99999996
1017,74424959.99999996
1497,221413825.50775583
1533,0.0
1557,0.0
2228,5922261.55519346
2366,2054030.3504452105
4114,33682789.58769399
4126,16519577.605455207
4162,14199365.105798256
4210,8992862.553777397
4236,219359795.15731064
4348,0.0
4473,207881.7314047027
2,1, 1, 1, 0,12, 0.00,60.00,Holiday
11,195876537.3098343
47,76056925.05234933
71,28137325.052349379
346,47919599.99999992
993,74424959.99999996
1017,74424959.99999996
1497,132772094.14400724
1533,11438885.168497468
1557,11438885.168497468
2228,6047074.907362255
2366,2378425.3216537067
4114,31283860.585342613
4126,16519577.605455207
4162,14199365.105798256
4210,7863103.143491421
4236,118954783.65385607
4348,0.0
4473,200613.62128875534
2,1, 1, 1, 0,13, 0.00,60.00,Holiday
11,223327707.97917945
47,87564057.30734864
71,39644457.30734867
346,47919599.99999992
993,89913239.99999997
1017,89913239.99999997
1497,57945919.99128781
1533,11438885.168497468
1557,11438885.168497468
2228,7444225.231398411
2366,2451070.586448726
4114,30801977.918984914
4126,16519577.605455207
4162,14199365.105798256
4210,7406049.4946599
4236,44055964.23634162
4348,0.0
4473,198158.02678768757
2,1, 1, 1, 0,14, 0.00,60.00,Holiday
11,224688673.5940451
47,88823822.3885566
71,40904222.3885566
346,47919599.99999992
993,89913239.99999997
1017,89913239.99999997
1497,41474446.286817457
1533,0.0
1557,0.0
2228,7445341.04692257
2366,2469896.687350153
4114,30856681.817055894
4126,16519577.605455207
4162,14199365.105798256
4210,7451382.385459572
4236,39004549.5994673
4348,0.0
4473,198205.95605059723
2,1, 1, 1, 0,15, 0.00,60.00,Holiday
11,225098711.69564346
47,88939828.71316998
71,41020228.71316999
346,47919599.99999992
993,89913239.99999997
1017,89913239.99999997
1497,47238117.492055658
1533,0.0
1557,0.0
2228,7283808.366383657
2366,2128760.021848919
4114,31048819.248655127
4126,16519577.605455207
4162,14199365.105798256
4210,7714818.773884273
4236,45109357.47020674
4348,0.0
4473,198196.59355052628
2,1, 1, 1, 0,16, 0.00,60.00,Holiday
11,225126369.41817919
47,89058240.98102904
71,41138640.981029059
346,47919599.99999992
993,89913239.99999997
1017,89913239.99999997
1497,59050622.90211613
1533,0.0
1557,0.0
2228,6582358.66365764
2366,2416878.364456749
4114,31281178.10836948
4126,16519577.605455207
4162,14199365.105798256
4210,8093193.452505433
4236,56633744.53765938
4348,0.0
4473,198158.21261771379
2,1, 1, 1, 0,17, 0.00,60.00,Holiday
11,226805751.48892898
47,89629699.11876148
71,41710099.11876149
346,47919599.99999992
993,89913239.99999997
1017,89913239.99999997
1497,91895921.91713836
1533,28597212.921243654
1557,28597212.921243654
2228,7419640.154389905
2366,2453687.3960862786
4114,31410708.63649297
4126,16519577.605455207
4162,14199365.105798256
4210,8234311.9331312
4236,60845021.59980844
4348,0.0
4473,198151.64615353305
2,1, 1, 1, 0,18, 0.00,60.00,Holiday
11,201283386.27274544
47,78647111.99999994
71,30727511.99999999
346,47919599.99999992
993,74424959.99999996
1017,74424959.99999996
1497,158093979.5485104
1533,28597212.921243654
1557,28597212.921243654
2228,7118341.667335405
2366,2389855.1486519828
4114,32369440.622291488
4126,16519577.605455207
4162,14199365.105798256
4210,8524546.662972553
4236,127106911.47861475
4348,0.0
4473,198985.3201461098
2,1, 1, 1, 0,19, 0.00,60.00,Holiday
11,242497923.81097258
47,106749035.99999982
71,15931835.999999995
346,90817199.99999984
993,101834279.99999984
1017,101834279.99999984
1497,182597691.04511477
1533,28597212.921243654
1557,28597212.921243654
2228,4741422.780645263
2366,1738589.495534869
4114,28942895.508092807
4126,14487417.026481722
4162,14199365.105798256
4210,26224.387173478517
4236,152261888.62833623
4348,0.0
4473,204065.13506123768
2,1, 1, 1, 0,20, 0.00,60.00,Holiday
11,271574260.72644916
47,124250678.9999998
71,4835078.999999999
346,119415599.9999998
993,118816469.99999982
1017,118816469.99999982
1497,3058470.7289394426
1533,0.0
1557,0.0
2228,5803813.124686418
2366,2027757.2349088898
4114,22703298.601763008
4126,8458341.339612134
4162,14199365.105798256
4210,0.0
4236,1030713.4940305522
4348,0.0
4473,0.0
2,1, 1, 1, 0,21, 0.00,60.00,Holiday
11,298907876.3481524
47,138549878.9999998
71,4835078.999999999
346,133714799.99999979
993,133115669.99999979
1017,133115669.99999979
1497,2188285.074601914
1533,0.0
1557,0.0
2228,4562227.666701723
2366,1682035.0941513787
4114,22680099.68145099
4126,8458341.339612134
4162,14199365.105798256
4210,0.0
4236,506249.98045053498
4348,0.0
4473,0.0
2,1, 1, 1, 0,22, 0.00,60.00,Holiday
11,268622542.75690338
47,124250678.9999998
71,4835078.999999999
346,119415599.9999998
993,118816469.99999982
1017,118816469.99999982
1497,2967056.8489379279
1533,0.0
1557,0.0
2228,2839403.788269813
2366,1649426.0216547687
4114,22715989.968633795
4126,8458341.339612134
4162,14199365.105798256
4210,0.0
4236,1317630.8272831592
4348,0.0
4473,0.0
2,1, 1, 1, 0,23, 0.00,60.00,Holiday
11,210792298.91776169
47,95652278.99999984
71,4835078.999999999
346,90817199.99999984
993,90218069.99999985
1017,90218069.99999985
1497,1323352.1630484497
1533,0.0
1557,0.0
2228,2264243.4723515186
2366,1323352.1630484497
4114,22657706.44541039
4126,8458341.339612134
4162,14199365.105798256
4210,0.0
4236,0.0
4348,0.0
4473,0.0
2,1, 1, 1, 0,24, 0.00,60.00,Holiday
11,124330959.89940529
47,52754678.99999992
71,4835078.999999999
346,47919599.99999992
993,47320469.999999929
1017,47320469.999999929
1497,1037720.0420940468
1533,0.0
1557,0.0
2228,1598104.4539949385
2366,1037720.0420940468
4114,22657706.44541039
4126,8458341.339612134
4162,14199365.105798256
4210,0.0
4236,0.0
4348,0.0
4473,0.0
2,2, 1, 2, 0, 1, 0.00,60.00,Friday
11,66322147.30359532
47,24156278.99999996
71,4835078.999999999
346,19321199.999999968
993,18722069.99999997
1017,18722069.99999997
1497,1029851.9327500365
1533,0.0
1557,0.0
2228,786091.8581849746
2366,1029851.9327500365
4114,22657706.44541039
4126,8458341.339612134
4162,14199365.105798256
4210,0.0
4236,0.0
4348,0.0
4473,0.0
2,2, 1, 2, 0, 2, 0.00,60.00,Friday
11,66328569.01479078
47,24156278.99999996
71,4835078.999999999
346,19321199.999999968
993,18722069.99999997
1017,18722069.99999997
1497,1035033.8921974708
1533,0.0
1557,0.0
2228,792513.5693804402
2366,1035033.8921974708
4114,22657706.44541039
4126,8458341.339612134
4162,14199365.105798256
4210,0.0
4236,0.0
4348,0.0
4473,0.0
2,2, 1, 2, 0, 3, 0.00,60.00,Friday
11,66328564.66329764
47,24156278.99999996
71,4835078.999999999
346,19321199.999999968
993,18722069.99999997
1017,18722069.99999997
1497,1293649.0454189557
1533,0.0
1557,0.0
2228,792509.2178872931
2366,1293649.0454189557
4114,22657706.44541039
4126,8458341.339612134
4162,14199365.105798256
4210,0.0
4236,0.0
4348,0.0
4473,0.0
2,2, 1, 2, 0, 4, 0.00,60.00,Friday
11,66342638.97354336
47,24156278.99999996
71,4835078.999999999
346,19321199.999999968
993,18722069.99999997
1017,18722069.99999997
1497,1493631.1549083512
1533,0.0
1557,0.0
2228,786042.2939883089
2366,1029249.8852546653
4114,22678247.6795551
4126,8458341.339612134
4162,14199365.105798256
4210,0.0
4236,464381.2696536858
4348,0.0
4473,0.0
2,2, 1, 2, 0, 5, 0.00,60.00,Friday
11,66371114.45294134
47,24156278.99999996
71,4835078.999999999
346,19321199.999999968
993,18722069.99999997
1017,18722069.99999997
1497,2136238.520683446
1533,0.0
1557,0.0
2228,786094.1980986709
2366,1029277.7503448228
4114,22706671.25484271
4126,8458341.339612134
4162,14199365.105798256
4210,0.0
4236,1106960.770338623
4348,0.0
4473,0.0
2,2, 1, 2, 0, 6, 0.00,60.00,Friday
11,138233969.23089934
47,53890838.99999992
71,5971238.999999999
346,47919599.99999992
993,47871269.999999929
1017,47871269.999999929
1497,1452644.6220390946
1533,0.0
1557,0.0
2228,1139526.60049581
2366,1036316.9010402002
4114,24708282.679270965
4126,10490501.918585619
4162,14199365.105798256
4210,10624050.951132583
4236,416327.7209988944
4348,0.0
4473,0.0
2,2, 1, 2, 0, 7, 0.00,60.00,Friday
11,212740794.14127989
47,80361638.99999988
71,5971238.999999999
346,74390399.99999988
993,69320069.9999999
1017,69320069.9999999
1497,670593262.9611445
1533,28597212.921243654
1557,28597212.921243654
2228,1218787.6519307767
2366,1034159.851644898
4114,50349809.795950669
4126,23490243.25869081
4162,14199365.105798256
4210,10696999.519242887
4236,640961890.1882559
4348,0.0
4473,793488.1741557327
2,2, 1, 2, 0, 8, 0.00,60.00,Friday
11,229096075.2043946
47,95736773.03424642
71,21346373.03424654
346,74390399.99999988
993,83139479.99999988
1017,83139479.99999988
1497,418819336.6722915
1533,28882321.086319496
1557,28882321.086319496
2228,2591234.267434483
2366,1686766.1855361392
4114,36740655.00384289
4126,16547808.707452767
4162,14199365.105798256
4210,10628205.075194788
4236,388250249.4004359
4348,0.0
4473,259727.82367611349
2,2, 1, 2, 0, 9, 0.00,60.00,Friday
11,285228459.4746019
47,123301880.11701077
71,48911480.11701091
346,74390399.99999988
993,112981499.99999987
1017,112981499.99999987
1497,235951851.0184253
1533,285108.16507584266
1557,285108.16507584266
2228,4653881.207865718
2366,2447173.785292772
4114,33758451.59632693
4126,16519577.605455207
4162,14199365.105798256
4210,10323887.22305273
4236,233219569.06805665
4348,0.0
4473,208859.33034581448
2,2, 1, 2, 0,10, 0.00,60.00,Friday
11,343111292.4976756
47,149050442.72124208
71,74660042.72124213
346,74390399.99999988
993,143958059.99999995
1017,143958059.99999995
1497,143057593.3812268
1533,285108.16507584266
1557,285108.16507584266
2228,6902054.753006219
2366,2929512.54370274
4114,33070212.01210724
4126,16563993.893148872
4162,14199365.105798256
4210,9931133.24922563
4236,139842972.67244823
4348,0.0
4473,199389.76209452339
2,2, 1, 2, 0,11, 0.00,60.00,Friday
11,298672654.63526698
47,125188363.29917231
71,72246763.29917234
346,52941599.9999999
993,122509259.99999996
1017,122509259.99999996
1497,127656139.6376105
1533,513194.69713651677
1557,513194.69713651677
2228,8149346.244800552
2366,3112862.5695302227
4114,33054906.0305582
4126,16609489.460829182
4162,14199365.105798256
4210,9572131.024768074
4236,124030082.37094376
4348,0.0
4473,198648.0359679414
2,2, 1, 2, 0,12, 0.00,60.00,Friday
11,300043684.4104987
47,124978294.18429598
71,72036694.18429601
346,52941599.9999999
993,122509259.99999996
1017,122509259.99999996
1497,99563161.16651687
1533,11952079.865633984
1557,11952079.865633984
2228,11187532.27462828
2366,4104915.294812361
4114,31819413.752875627
4126,16847353.09513294
4162,14199365.105798256
4210,9350800.556040246
4236,83506166.00607053
4348,0.0
4473,198383.6426586891
2,2, 1, 2, 0,13, 0.00,60.00,Friday
11,299759718.06582608
47,124361511.6195415
71,71419911.61954151
346,52941599.9999999
993,122509259.99999996
1017,122509259.99999996
1497,65471972.663729209
1533,11952079.865633984
1557,11952079.865633984
2228,13186243.707418
2366,4562658.314178542
4114,31227433.880511144
4126,16918892.059920379
4162,14199365.105798256
4210,8277086.742775688
4236,48957234.48391668
4348,0.0
4473,198182.11557983107
2,2, 1, 2, 0,14, 0.00,60.00,Friday
11,295522130.96533766
47,124626954.48958811
71,71685354.48958813
346,52941599.9999999
993,122509259.99999996
1017,122509259.99999996
1497,32516084.378752378
1533,513194.69713651677
1557,513194.69713651677
2228,11942191.355488785
2366,4206849.396235028
4114,31207439.338284047
4126,17004705.373260775
4162,14199365.105798256
4210,5024632.941240553
4236,27796040.28538083
4348,13321.218660754412
4473,198331.62207544386
2,2, 1, 2, 0,15, 0.00,60.00,Friday
11,293726257.6201802
47,124769888.82827476
71,71828288.82827477
346,52941599.9999999
993,122509259.99999996
1017,122509259.99999996
1497,18301147.59456215
1533,427662.2476137639
1557,427662.2476137639
2228,10074328.83747905
2366,3614452.8573429968
4114,31676048.969828607
4126,17316526.48290563
4162,14199365.105798256
4210,3799725.1457048736
4236,14259032.489605394
4348,698338.659963853
4473,198667.17892913917
2,2, 1, 2, 0,16, 0.00,60.00,Friday
11,292947224.1403365
47,124741390.9462389
71,71799790.94623894
346,52941599.9999999
993,122509259.99999996
1017,122509259.99999996
1497,11280263.484544702
1533,427662.2476137639
1557,427662.2476137639
2228,9455272.12101832
2366,3349735.4467495435
4114,32302430.424144634
4126,17952811.12068388
4162,14199365.105798256
4210,3282647.142336045
4236,7502865.790181395
4348,457317.9027246085
4473,198905.60387397314
2,2, 1, 2, 0,17, 0.00,60.00,Friday
11,297905518.78749456
47,129738908.7207265
71,76797308.72072655
346,52941599.9999999
993,122509259.99999996
1017,122509259.99999996
1497,50264582.78474954
1533,29024875.168857416
1557,29024875.168857416
2228,9538257.634049986
2366,3415708.088129121
4114,32064995.904203908
4126,17768090.672478808
4162,14199365.105798256
4210,3849661.785917148
4236,17823999.527763
4348,5846.9345590878779
4473,198587.80803798096
2,2, 1, 2, 0,18, 0.00,60.00,Friday
11,291524458.6418977
47,123776342.99999996
71,70834742.99999997
346,52941599.9999999
993,118102859.99999997
1017,118102859.99999997
1497,83983403.17891012
1533,29024875.168857416
1557,29024875.168857416
2228,9245404.262621934
2366,3466542.9987779387
4114,31604000.681883918
4126,17190663.391161127
4162,14199365.105798256
4210,8597662.307956467
4236,51491985.01127476
4348,0.0
4473,198188.38943552145
2,2, 1, 2, 0,19, 0.00,60.00,Friday
11,328812040.9155658
47,143344268.99999986
71,47505068.99999999
346,95839199.99999984
993,135564839.99999989
1017,135564839.99999989
1497,122748480.43410844
1533,28597212.921243654
1557,28597212.921243654
2228,8427744.29441544
2366,2932851.2896964487
4114,30948165.13252794
4126,16704197.824826464
4162,14199365.105798256
4210,10327600.288689558
4236,91218416.22316833
4348,0.0
4473,199422.19993314183
2,2, 1, 2, 0,20, 0.00,60.00,Friday
11,385413845.8093155
47,171942668.99999974
71,47505068.99999999
346,124437599.9999998
993,164163239.99999974
1017,164163239.99999974
1497,109158606.79141434
1533,0.0
1557,0.0
2228,7271397.338628981
2366,2520973.5009509099
4114,30762656.581581356
4126,16563291.475783099
4162,14199365.105798256
4210,11072971.660159067
4236,106637633.29046342
4348,0.0
4473,200911.22894649837
2,2, 1, 2, 0,21, 0.00,60.00,Friday
11,399190710.6174247
47,180270629.9999997
71,41533829.999999988
346,138736799.9999998
993,169616699.99999974
1017,169616699.99999974
1497,133639351.01086703
1533,0.0
1557,0.0
2228,6192074.089340597
2366,2477045.8541783757
4114,30723770.76633482
4126,16519577.605455207
4162,14199365.105798256
4210,12183199.324375283
4236,131162305.15668868
4348,0.0
4473,204336.4373744778
2,2, 1, 2, 0,22, 0.00,60.00,Friday
11,319224433.748744
47,143777915.9999998
71,19340315.999999998
346,124437599.9999998
993,132085079.9999998
1017,132085079.9999998
1497,2823034.5258286485
1533,0.0
1557,0.0
2228,4650937.297310727
2366,1716434.0641367366
4114,24738815.948177797
4126,10490501.918585619
4162,14199365.105798256
4210,13971684.503255792
4236,1106600.4616919114
4348,0.0
4473,0.0
2,2, 1, 2, 0,23, 0.00,60.00,Friday
11,232610053.9019187
47,96788438.99999984
71,5971238.999999999
346,90817199.99999984
993,90768869.99999985
1017,90768869.99999985
1497,1616574.9071684564
1533,0.0
1557,0.0
2228,2544866.747641368
2366,1616574.9071684564
4114,24689867.024383874
4126,10490501.918585619
4162,14199365.105798256
4210,17818011.129893759
4236,0.0
4348,0.0
4473,0.0
2,2, 1, 2, 0,24, 0.00,60.00,Friday
11,141625630.4196572
47,52754678.99999992
71,4835078.999999999
346,47919599.99999992
993,47320469.999999929
1017,47320469.999999929
1497,1050532.0849991027
1533,0.0
1557,0.0
2228,1625234.59734686
2366,1050532.0849991027
4114,24689867.024383874
4126,10490501.918585619
4162,14199365.105798256
4210,15235379.797926529
4236,0.0
4348,0.0
4473,0.0
2,3, 1, 3, 0, 1, 0.00,60.00,Saturday
11,68037248.04115653
47,24156278.99999996
71,4835078.999999999
346,19321199.999999968
993,18722069.99999997
1017,18722069.99999997
1497,1333302.847407937
1533,0.0
1557,0.0
2228,2501192.5957461849
2366,1333302.847407937
4114,22657706.44541039
4126,8458341.339612134
4162,14199365.105798256
4210,0.0
4236,0.0
4348,0.0
4473,0.0
2,3, 1, 3, 0, 2, 0.00,60.00,Saturday
11,68015215.33228232
47,24156278.99999996
71,4835078.999999999
346,19321199.999999968
993,18722069.99999997
1017,18722069.99999997
1497,1326466.3766941424
1533,0.0
1557,0.0
2228,2479159.8868719909
2366,1326466.3766941424
4114,22657706.44541039
4126,8458341.339612134
4162,14199365.105798256
4210,0.0
4236,0.0
4348,0.0
4473,0.0
2,3, 1, 3, 0, 3, 0.00,60.00,Saturday
11,67431006.21837497
47,24156278.99999996
71,4835078.999999999
346,19321199.999999968
993,18722069.99999997
1017,18722069.99999997
1497,7419311.797168603
1533,0.0
1557,0.0
2228,1624853.3290327755
2366,1313149.4922410153
4114,22927803.889342246
4126,8458341.339612134
4162,14199365.105798256
4210,0.0
4236,6106162.3049275879
4348,0.0
4473,0.0
2,3, 1, 3, 0, 4, 0.00,60.00,Saturday
11,67215557.1249666
47,24156278.99999996
71,4835078.999999999
346,19321199.999999968
993,18722069.99999997
1017,18722069.99999997
1497,20941939.03823926
1533,0.0
1557,0.0
2228,799154.4971311684
2366,1039709.4614702027
4114,23538053.627835495
4126,8458341.339612134
4162,14199365.105798256
4210,0.0
4236,19902229.576769059
4348,0.0
4473,0.0
2,3, 1, 3, 0, 5, 0.00,60.00,Saturday
11,69242109.44618052
47,24156278.99999996
71,4835078.999999999
346,19321199.999999968
993,18722069.99999997
1017,18722069.99999997
1497,48694298.56964747
1533,0.0
1557,0.0
2228,1598133.5754108215
2366,1040012.9706755113
4114,24765626.87076975
4126,8458341.339612134
4162,14199365.105798256
4210,0.0
4236,47654285.598971959
4348,0.0
4473,0.0
2,3, 1, 3, 0, 6, 0.00,60.00,Saturday
11,177326117.9188721
47,52754678.99999992
71,4835078.999999999
346,47919599.99999992
993,47320469.999999929
1017,47320469.999999929
1497,54568127.12156574
1533,0.0
1557,0.0
2228,798976.4820766707
2366,1308514.086467164
4114,27045731.255562813
4126,10490501.918585619
4162,14199365.105798256
4210,49406261.18123268
4236,53259613.03509857
4348,0.0
4473,0.0
2,3, 1, 3, 0, 7, 0.00,60.00,Saturday
11,264574321.4050491
47,80361638.99999988
71,5971238.999999999
346,74390399.99999988
993,69320069.9999999
1017,69320069.9999999
1497,1080703365.2112513
1533,28597212.921243654
1557,28597212.921243654
2228,1611705.6070339878
2366,1049941.988685551
4114,62959580.29948613
4126,21249866.280230173
4162,14199365.105798256
4210,49467695.89120772
4236,1051056210.3013221
4348,0.0
4473,853630.6073214918
2,3, 1, 3, 0, 8, 0.00,60.00,Saturday
11,257937538.533961
47,83715038.65489565
71,9324638.654895762
346,74390399.99999988
993,73192139.99999988
1017,73192139.99999988
1497,747674421.090357
1533,28597212.921243654
1557,28597212.921243654
2228,4520644.16246614
2366,1984340.0831868132
4114,46536287.895141039
4126,16519577.605455207
4162,14199365.105798256
4210,49559830.04707354
4236,717092868.0859265
4348,0.0
4473,413597.7743847669
2,3, 1, 3, 0, 9, 0.00,60.00,Saturday
11,287337310.8650216
47,101418989.98109964
71,27028589.98109977
346,74390399.99999988
993,90883619.99999987
1017,90883619.99999987
1497,531668550.1529531
1533,285108.16507584266
1557,285108.16507584266
2228,4696299.542255654
2366,2048167.4144261652
4114,40421771.09931092
4126,16519577.605455207
4162,14199365.105798256
4210,49596197.82253092
4236,529335274.5734511
4348,0.0
4473,320432.41982456998
2,3, 1, 3, 0,10, 0.00,60.00,Saturday
11,310522941.4604532
47,118909640.10915515
71,44519240.10915526
346,74390399.99999988
993,114116039.99999988
1017,114116039.99999988
1497,345055586.4501012
1533,285108.16507584266
1557,285108.16507584266
2228,5238672.246361161
2366,2327830.399763969
4114,36366464.77548882
4126,16563786.698396918
4162,14199365.105798256
4210,35651330.465501058
4236,342442647.8852614
4348,0.0
4473,240793.86394712787
2,3, 1, 3, 0,11, 0.00,60.00,Saturday
11,293684001.44631347
47,117683717.63091207
71,64742117.63091208
346,52941599.9999999
993,115899659.99999997
1017,115899659.99999997
1497,252241479.38782997
1533,513194.69713651677
1557,513194.69713651677
2228,8646839.51395638
2366,2800832.233468874
4114,34974050.880181919
4126,16664879.219673716
4162,14199365.105798256
4210,16268313.14086118
4236,248927452.45722459
4348,0.0
4473,211420.28040195339
2,3, 1, 3, 0,12, 0.00,60.00,Saturday
11,289639135.92615178
47,117776113.35139317
71,64834513.35139318
346,52941599.9999999
993,115899659.99999997
1017,115899659.99999997
1497,189662725.37227909
1533,11952079.865633984
1557,11952079.865633984
2228,10624302.09966346
2366,3524728.0420635698
4114,33563879.93644827
4126,16924105.167157458
4162,14199365.105798256
4210,11545593.069759394
4236,174185917.46458156
4348,26428.0352753123
4473,203159.4336122542
2,3, 1, 3, 0,13, 0.00,60.00,Saturday
11,285201366.9988141
47,113962924.48846954
71,61021324.488469559
346,52941599.9999999
993,114247259.99999997
1017,114247259.99999997
1497,146835464.7607881
1533,11952079.865633984
1557,11952079.865633984
2228,12235122.188818466
2366,3696728.5011365257
4114,32972199.609432885
4126,16994022.689517816
4162,14199365.105798256
4210,10644507.352009003
4236,131186656.3940176
4348,939270.3211631685
4473,200083.03892116925
2,3, 1, 3, 0,14, 0.00,60.00,Saturday
11,286203764.32538577
47,114095575.0810148
71,61153975.08101483
346,52941599.9999999
993,114247259.99999997
1017,114247259.99999997
1497,92446421.78343113
1533,513194.69713651677
1557,513194.69713651677
2228,12188349.299976647
2366,3711643.2973842949
4114,32872813.028595047
4126,17289334.522687295
4162,14199365.105798256
4210,9955189.782567403
4236,88221583.78891033
4348,2645955.585325559
4473,198621.54790634843
2,3, 1, 3, 0,15, 0.00,60.00,Saturday
11,283865336.09097066
47,113403832.78956148
71,60462232.789561498
346,52941599.9999999
993,114247259.99999997
1017,114247259.99999997
1497,48655243.23970893
1533,427662.2476137639
1557,427662.2476137639
2228,9934883.784893195
2366,3062756.424852269
4114,33112234.49121647
4126,17802162.065081698
4162,14199365.105798256
4210,9249062.740989604
4236,45164824.567242909
4348,3719853.729973812
4473,198208.55433620295
2,3, 1, 3, 0,16, 0.00,60.00,Saturday
11,282677718.18389257
47,113370237.3655855
71,60428637.365585509
346,52941599.9999999
993,114247259.99999997
1017,114247259.99999997
1497,33946013.615887288
1533,427662.2476137639
1557,427662.2476137639
2228,9806925.124991935
2366,3017261.0085900968
4114,33207866.001972755
4126,18181131.249836308
4162,14199365.105798256
4210,8995922.682885284
4236,30501090.35968342
4348,2851144.355084586
4473,198362.65337262138
2,3, 1, 3, 0,17, 0.00,60.00,Saturday
11,284632502.395136
47,118318439.76377732
71,65376839.763777349
346,52941599.9999999
993,114247259.99999997
1017,114247259.99999997
1497,69587596.86731979
1533,29024875.168857416
1557,29024875.168857416
2228,9675388.704289262
2366,3014960.24857393
4114,32735077.811500726
4126,18184402.011785509
4162,14199365.105798256
4210,9222716.191480272
4236,37547761.449888449
4348,235354.61926684439
4473,198265.3048216747
2,3, 1, 3, 0,18, 0.00,60.00,Saturday
11,276495665.49222978
47,111937382.99999996
71,64017782.99999998
346,47919599.99999992
993,113145659.99999997
1017,113145659.99999997
1497,106278742.64036888
1533,28597212.921243654
1557,28597212.921243654
2228,8871994.0707426
2366,2938306.996502586
4114,32441406.191947957
4126,17549339.78017371
4162,14199365.105798256
4210,9900958.038361691
4236,74743222.72262264
4348,0.0
4473,198264.1911776606
2,3, 1, 3, 0,19, 0.00,60.00,Saturday
11,304779470.62109866
47,128942549.99999987
71,38125349.999999988
346,90817199.99999984
993,125066699.99999988
1017,125066699.99999988
1497,139200391.22148798
1533,28597212.921243654
1557,28597212.921243654
2228,8847023.047609007
2366,2859732.808320904
4114,30876356.10267506
4126,16520401.743294253
4162,14199365.105798256
4210,10846290.25961271
4236,107743445.49192342
4348,0.0
4473,200551.21120210214
2,3, 1, 3, 0,20, 0.00,60.00,Saturday
11,317319679.7888102
47,142745273.9999998
71,23329673.999999994
346,119415599.9999998
993,138176819.9999998
1017,138176819.9999998
1497,141526120.00007055
1533,0.0
1557,0.0
2228,7444631.120431198
2366,2368877.926093045
4114,28723278.035520793
4126,14487417.026481722
4162,14199365.105798256
4210,24767.051030181894
4236,139157242.07397748
4348,0.0
4473,204909.58182836005
2,3, 1, 3, 0,21, 0.00,60.00,Saturday
11,344414162.0147402
47,157044473.99999977
71,23329673.999999994
346,133714799.99999979
993,152476019.99999977
1017,152476019.99999977
1497,180437377.55174334
1533,0.0
1557,0.0
2228,5923550.33141849
2366,2189768.911539599
4114,28726937.77931302
4126,14487417.026481722
4162,14199365.105798256
4210,31750.993793631656
4236,178247608.6402037
4348,0.0
4473,211428.91021546757
2,3, 1, 3, 0,22, 0.00,60.00,Saturday
11,284337884.9915745
47,127949597.9999998
71,8533997.999999999
346,119415599.9999998
993,122688539.9999998
1017,122688539.9999998