Program Version,EnergyPlus, Version 9.0.1-bb7ca4f0da, YMD=2019.12.17 18:54
1,5,Environment Title[],Latitude[deg],Longitude[deg],Time Zone[],Elevation[m]
2,8,Day of Simulation[],Month[],Day of Month[],DST Indicator[1=yes 0=no],Hour[],StartMinute[],EndMinute[],DayType
3,5,Cumulative Day of Simulation[],Month[],Day of Month[],DST Indicator[1=yes 0=no],DayType  ! When Daily Meters Requested
4,2,Cumulative Days of Simulation[],Month[]  ! When Monthly Meters Requested
5,1,Cumulative Days of Simulation[] ! When Run Period Meters Requested
6,1,Calendar Year of Simulation[] ! When Annual Meters Requested
4473,1,Pumps:Electricity [J] !Hourly
4114,1,Fans:Electricity [J] !Hourly
2366,1,WaterSystems:Gas [J] !Hourly
4236,1,Heating:Gas [J] !Hourly
1533,1,InteriorEquipment:Gas [J] !Hourly
11,1,Electricity:Facility [J] !Hourly
47,1,InteriorLights:Electricity [J] !Hourly
993,1,InteriorEquipment:Electricity [J] !Hourly
4348,1,Cooling:Electricity [J] !Hourly
4210,1,Heating:Electricity [J] !Hourly
1017,1,Receptacle:InteriorEquipment:Electricity [J] !Hourly
2228,1,WaterSystems:Electricity [J] !Hourly
71,1,ComplianceLtg:InteriorLights:Electricity [J] !Hourly
1497,1,Gas:Facility [J] !Hourly
1557,1,Receptacle:InteriorEquipment:Gas [J] !Hourly
346,1,NonComplianceLtg:InteriorLights:Electricity [J] !Hourly
4126,1,General:Fans:Electricity [J] !Hourly
4162,1,ProcessMotors:Fans:Electricity [J] !Hourly
End of Data Dictionary
1,SACRAMENTO-EXECUTIVE_724830_CZ2010,  38.50,-121.50,  -8.00,   5.00
2,1, 1, 1, 0, 1, 0.00,60.00,Holiday
11,66342324.171838279
47,24156278.99999996
71,4835078.999999999
346,19321199.999999968
993,18722069.99999997
1017,18722069.99999997
1497,1043087.7931304153
1533,0.0
1557,0.0
2228,806268.7264279339
2366,1043087.7931304153
4114,22657706.445410395
4126,8458341.339612136
4162,14199365.105798256
4210,0.0
4236,0.0
4348,0.0
4473,0.0
2,1, 1, 1, 0, 2, 0.00,60.00,Holiday
11,67148404.46415958
47,24156278.99999996
71,4835078.999999999
346,19321199.999999968
993,18722069.99999997
1017,18722069.99999997
1497,1043349.5067645926
1533,0.0
1557,0.0
2228,1612349.0187492283
2366,1043349.5067645926
4114,22657706.445410395
4126,8458341.339612136
4162,14199365.105798256
4210,0.0
4236,0.0
4348,0.0
4473,0.0
2,1, 1, 1, 0, 3, 0.00,60.00,Holiday
11,67148124.0065372
47,24156278.99999996
71,4835078.999999999
346,19321199.999999968
993,18722069.99999997
1017,18722069.99999997
1497,1304059.8427613
1533,0.0
1557,0.0
2228,1612068.561126868
2366,1304059.8427613
4114,22657706.445410395
4126,8458341.339612136
4162,14199365.105798256
4210,0.0
4236,0.0
4348,0.0
4473,0.0
2,1, 1, 1, 0, 4, 0.00,60.00,Holiday
11,68896100.00024778
47,24156278.99999996
71,4835078.999999999
346,19321199.999999968
993,18722069.99999997
1017,18722069.99999997
1497,1460782.4921102413
1533,0.0
1557,0.0
2228,1598814.5538149188
2366,1038007.2582656645
4114,24369122.329063409
4126,10160111.299777111
4162,14199365.105798256
4210,36.65086784366036
4236,422775.2338445767
4348,0.0
4473,49777.46650166242
2,1, 1, 1, 0, 5, 0.00,60.00,Holiday
11,70280523.44233075
47,24156278.99999996
71,4835078.999999999
346,19321199.999999968
993,18722069.99999997
1017,18722069.99999997
1497,3327547.5219862784
1533,0.0
1557,0.0
2228,799459.8651397366
2366,1038131.3490309152
4114,26502982.753531785
4126,12255312.363479786
4162,14199365.105798256
4210,214.37685506298224
4236,2289416.1729553628
4348,0.0
4473,99517.44680422324
2,1, 1, 1, 0, 6, 0.00,60.00,Holiday
11,141897192.1694491
47,52754678.99999992
71,4835078.999999999
346,47919599.99999992
993,47320469.999999929
1017,47320469.999999929
1497,5826897.1608532
1533,0.0
1557,0.0
2228,1599008.8085942977
2366,1306100.7504027903
4114,29399928.07578632
4126,15181049.260980873
4162,14199365.105798256
4210,10698817.388618283
4236,4520796.410450409
4348,0.0
4473,124288.89645024084
2,1, 1, 1, 0, 7, 0.00,60.00,Holiday
11,199665787.14733235
47,74203478.99999988
71,4835078.999999999
346,69368399.9999999
993,68769269.9999999
1017,68769269.9999999
1497,351869206.18734636
1533,28597212.921243654
1557,28597212.921243654
2228,1612293.5305588579
2366,1043342.7147841791
4114,43832808.876401249
4126,15632908.436763499
4162,14199365.105798256
4210,11117814.128668413
4236,322228650.5513185
4348,0.0
4473,130121.61170401256
2,1, 1, 1, 0, 8, 0.00,60.00,Holiday
11,192368975.27837713
47,74201021.66164673
71,4832621.661646834
346,69368399.9999999
993,68769269.9999999
1017,68769269.9999999
1497,214602549.6428198
1533,28597212.921243654
1557,28597212.921243654
2228,1654218.3167194105
2366,1324121.1220180214
4114,36382223.7146389
4126,14287472.942453273
4162,14199365.105798256
4210,11262905.919878472
4236,184681215.59955812
4348,0.0
4473,99335.66549374799
2,1, 1, 1, 0, 9, 0.00,60.00,Holiday
11,212045324.05944539
47,77869827.4972232
71,8501427.497223326
346,69368399.9999999
993,72641339.99999988
1017,72641339.99999988
1497,538341346.2198176
1533,0.0
1557,0.0
2228,2524916.215787379
2366,1337840.5101550553
4114,46675604.902439858
4126,25954926.373600674
4162,14199365.105798256
4210,11333132.292348966
4236,537003505.7096627
4348,0.0
4473,1000503.1516460653
2,1, 1, 1, 0,10, 0.00,60.00,Holiday
11,202151420.61590559
47,77828910.16524345
71,8460510.165243574
346,69368399.9999999
993,72641339.99999988
1017,72641339.99999988
1497,450432810.5245242
1533,0.0
1557,0.0
2228,2569298.6612546185
2366,1361103.2143031259
4114,37384409.93798437
4126,16631872.45766071
4162,14199365.105798256
4210,11393474.459426519
4236,449071707.3102212
4348,0.0
4473,333987.3919966868
2,1, 1, 1, 0,11, 0.00,60.00,Holiday
11,208895908.58083264
47,78229150.21988473
71,30309550.219884769
346,47919599.99999992
993,74424959.99999996
1017,74424959.99999996
1497,407542257.0729552
1533,0.0
1557,0.0
2228,5938723.94435332
2366,2234969.7101412655
4114,38718296.59888221
4126,16519577.605455207
4162,14199365.105798256
4210,11355067.93719468
4236,405307287.36281397
4348,0.0
4473,229709.88051781653
2,1, 1, 1, 0,12, 0.00,60.00,Holiday
11,209342405.61094315
47,78028628.63419378
71,30109028.634193824
346,47919599.99999992
993,74424959.99999996
1017,74424959.99999996
1497,397928689.03559878
1533,11438885.168497468
1557,11438885.168497468
2228,6897260.7788807009
2366,2191704.972411691
4114,38451621.91093603
4126,16519577.605455207
4162,14199365.105798256
4210,11320574.136355112
4236,384298098.8946897
4348,0.0
4473,219360.15057766485
2,1, 1, 1, 0,13, 0.00,60.00,Holiday
11,234656204.20261944
47,88265083.6757778
71,40345483.6757778
346,47919599.99999992
993,89913239.99999997
1017,89913239.99999997
1497,333026967.8915866
1533,11438885.168497468
1557,11438885.168497468
2228,7079876.99637574
2366,2456349.509591638
4114,37775008.63300645
4126,16519577.605455207
4162,14199365.105798256
4210,11415501.124840284
4236,319131733.2134975
4348,0.0
4473,207493.77261927795
2,1, 1, 1, 0,14, 0.00,60.00,Holiday
11,233279648.55577929
47,88456801.29182247
71,40537201.29182249
346,47919599.99999992
993,89913239.99999997
1017,89913239.99999997
1497,273325929.5395789
1533,0.0
1557,0.0
2228,7085406.0580689669
2366,2475493.337652505
4114,36618007.241248879
4126,16519577.605455207
4162,14199365.105798256
4210,11002180.799238287
4236,270850436.2019264
4348,0.0
4473,204013.16540076678
2,1, 1, 1, 0,15, 0.00,60.00,Holiday
11,233075748.2448145
47,88814410.58572668
71,40894810.58572668
346,47919599.99999992
993,89913239.99999997
1017,89913239.99999997
1497,252645477.92540396
1533,0.0
1557,0.0
2228,7205487.738454616
2366,2427233.1330658227
4114,36222161.01744837
4126,16519577.605455207
4162,14199365.105798256
4210,10718087.799933054
4236,250218244.7923381
4348,0.0
4473,202361.10325186753
2,1, 1, 1, 0,16, 0.00,60.00,Holiday
11,232989311.70648173
47,89011702.9215002
71,41092102.92150022
346,47919599.99999992
993,89913239.99999997
1017,89913239.99999997
1497,237629462.11944766
1533,0.0
1557,0.0
2228,7386945.729248695
2366,2138594.461201969
4114,35801259.83186613
4126,16519577.605455207
4162,14199365.105798256
4210,10674328.106695336
4236,235490867.65824569
4348,0.0
4473,201835.117171432
2,1, 1, 1, 0,17, 0.00,60.00,Holiday
11,233027720.57771308
47,89679419.09397859
71,41759819.09397861
346,47919599.99999992
993,89913239.99999997
1017,89913239.99999997
1497,244190934.33178247
1533,28597212.921243654
1557,28597212.921243654
2228,7553822.339082768
2366,2446023.224058398
4114,35258776.15759051
4126,16519577.605455207
4162,14199365.105798256
4210,10421599.096582018
4236,213147698.1864804
4348,0.0
4473,200863.8904792722
2,1, 1, 1, 0,18, 0.00,60.00,Holiday
11,205446723.76551117
47,78647111.99999994
71,30727511.99999999
346,47919599.99999992
993,74424959.99999996
1017,74424959.99999996
1497,273445226.3379868
1533,28597212.921243654
1557,28597212.921243654
2228,6744525.606454777
2366,2415733.951614562
4114,35225478.391399439
4126,16519577.605455207
4162,14199365.105798256
4210,10201192.245886408
4236,242432279.4651286
4348,0.0
4473,203455.5217706978
2,1, 1, 1, 0,19, 0.00,60.00,Holiday
11,243935661.01541455
47,106749035.99999982
71,15931835.999999995
346,90817199.99999984
993,101834279.99999984
1017,101834279.99999984
1497,246364269.3232863
1533,28597212.921243654
1557,28597212.921243654
2228,5261886.884262108
2366,2007994.2519759783
4114,29844444.409713687
4126,14487417.026481722
4162,14199365.105798256
4210,33943.828956745056
4236,215759062.15006665
4348,0.0
4473,212069.89248222637
2,1, 1, 1, 0,20, 0.00,60.00,Holiday
11,271695417.5363159
47,124250678.9999998
71,4835078.999999999
346,119415599.9999998
993,118816469.99999982
1017,118816469.99999982
1497,7783552.591723325
1533,0.0
1557,0.0
2228,5714302.895510121
2366,1990240.791948534
4114,22913965.640806099
4126,8458341.339612136
4162,14199365.105798256
4210,0.0
4236,5793311.79977479
4348,0.0
4473,0.0
2,1, 1, 1, 0,21, 0.00,60.00,Holiday
11,298218109.1192819
47,138549878.9999998
71,4835078.999999999
346,133714799.99999979
993,133115669.99999979
1017,133115669.99999979
1497,4944115.855469737
1533,0.0
1557,0.0
2228,3752355.324032099
2366,1722621.549729202
4114,22800204.795250104
4126,8458341.339612136
4162,14199365.105798256
4210,0.0
4236,3221494.3057405345
4348,0.0
4473,0.0
2,1, 1, 1, 0,22, 0.00,60.00,Holiday
11,269473757.90422359
47,124250678.9999998
71,4835078.999999999
346,119415599.9999998
993,118816469.99999982
1017,118816469.99999982
1497,7508533.744530794
1533,0.0
1557,0.0
2228,3489696.368464035
2366,1648599.9699375779
4114,22916912.535759778
4126,8458341.339612136
4162,14199365.105798256
4210,0.0
4236,5859933.774593216
4348,0.0
4473,0.0
2,1, 1, 1, 0,23, 0.00,60.00,Holiday
11,211009223.25946019
47,95652278.99999984
71,4835078.999999999
346,90817199.99999984
993,90218069.99999985
1017,90218069.99999985
1497,1061474.2546565738
1533,0.0
1557,0.0
2228,2481167.814050046
2366,1061474.2546565738
4114,22657706.445410395
4126,8458341.339612136
4162,14199365.105798256
4210,0.0
4236,0.0
4348,0.0
4473,0.0
2,1, 1, 1, 0,24, 0.00,60.00,Holiday
11,123532323.37562552
47,52754678.99999992
71,4835078.999999999
346,47919599.99999992
993,47320469.999999929
1017,47320469.999999929
1497,1297550.903737679
1533,0.0
1557,0.0
2228,799467.9302151827
2366,1297550.903737679
4114,22657706.445410395
4126,8458341.339612136
4162,14199365.105798256
4210,0.0
4236,0.0
4348,0.0
4473,0.0
2,2, 1, 2, 0, 1, 0.00,60.00,Friday
11,66322425.05977882
47,24156278.99999996
71,4835078.999999999
346,19321199.999999968
993,18722069.99999997
1017,18722069.99999997
1497,1029966.9923017254
1533,0.0
1557,0.0
2228,786369.61436848
2366,1029966.9923017254
4114,22657706.445410395
4126,8458341.339612136
4162,14199365.105798256
4210,0.0
4236,0.0
4348,0.0
4473,0.0
2,2, 1, 2, 0, 2, 0.00,60.00,Friday
11,67133317.60138119
47,24156278.99999996
71,4835078.999999999
346,19321199.999999968
993,18722069.99999997
1017,18722069.99999997
1497,1299766.6568708262
1533,0.0
1557,0.0
2228,1585543.8237146554
2366,1034847.1309544104
4114,22669424.777666585
4126,8458341.339612136
4162,14199365.105798256
4210,0.0
4236,264919.52591641587
4348,0.0
4473,0.0
2,2, 1, 2, 0, 3, 0.00,60.00,Friday
11,68403871.32614006
47,24156278.99999996
71,4835078.999999999
346,19321199.999999968
993,18722069.99999997
1017,18722069.99999997
1497,4840591.54418619
1533,0.0
1557,0.0
2228,792884.1913398147
2366,1035036.9210435239
4114,24682820.59647286
4126,10325339.876796009
4162,14199365.105798256
4210,41.35720044362169
4236,3805554.6231426668
4348,0.0
4473,49776.18112699759
2,2, 1, 2, 0, 4, 0.00,60.00,Friday
11,70873232.20879993
47,24156278.99999996
71,4835078.999999999
346,19321199.999999968
993,18722069.99999997
1017,18722069.99999997
1497,17316943.82610908
1533,0.0
1557,0.0
2228,786387.3995938642
2366,1029988.2273296443
4114,27108723.73216752
4126,12255312.363479786
4162,14199365.105798256
4210,268.6984788141922
4236,16286955.598779438
4348,0.0
4473,99503.37855977335
2,2, 1, 2, 0, 5, 0.00,60.00,Friday
11,71460843.67749816
47,24156278.99999996
71,4835078.999999999
346,19321199.999999968
993,18722069.99999997
1017,18722069.99999997
1497,31714944.42821859
1533,0.0
1557,0.0
2228,786266.8791745197
2366,1030020.7603393364
4114,27696303.417524615
4126,12255312.363479786
4162,14199365.105798256
4210,468.2225944926704
4236,30684923.667879255
4348,0.0
4473,99456.15820459636
2,2, 1, 2, 0, 6, 0.00,60.00,Friday
11,159117862.5305829
47,53890838.99999992
71,5971238.999999999
346,47919599.99999992
993,47871269.999999929
1017,47871269.999999929
1497,28873111.82324293
1533,0.0
1557,0.0
2228,786395.9874796376
2366,1036875.0131724215
4114,30472709.403880579
4126,15236715.698420186
4162,14199365.105798256
4210,25972364.65576521
4236,27836236.810070509
4348,0.0
4473,124283.48345753926
2,2, 1, 2, 0, 7, 0.00,60.00,Friday
11,243764306.81814394
47,80361638.99999988
71,5971238.999999999
346,74390399.99999988
993,69320069.9999999
1017,69320069.9999999
1497,1022944455.9162791
1533,28597212.921243654
1557,28597212.921243654
2228,786403.512321566
2366,1195217.8778683074
4114,64826521.137306068
4126,26847643.86894206
4162,14199365.105798256
4210,27152813.397533224
4236,993152025.1171672
4348,0.0
4473,1316859.770983294
2,2, 1, 2, 0, 8, 0.00,60.00,Friday
11,252322199.54308067
47,95984982.18643244
71,21594582.186432568
346,74390399.99999988
993,83139479.99999988
1017,83139479.99999988
1497,666876809.0942316
1533,28882321.086319496
1557,28882321.086319496
2228,3458791.9629318586
2366,1795691.2077428525
4114,44053698.84226889
4126,16598509.463189763
4162,14199365.105798256
4210,25317273.797208623
4236,636198796.8001692
4348,0.0
4473,367972.7542390033
2,2, 1, 2, 0, 9, 0.00,60.00,Friday
11,309162704.1780115
47,125807105.97488487
71,51416705.974884998
346,74390399.99999988
993,112981499.99999987
1017,112981499.99999987
1497,504488184.33792737
1533,285108.16507584266
1557,285108.16507584266
2228,4663195.172582754
2366,2450890.79100437
4114,41236524.66198853
4126,16519577.605455207
4162,14199365.105798256
4210,24217866.62062738
4236,501752185.38184717
4348,0.0
4473,256511.7479280069
2,2, 1, 2, 0,10, 0.00,60.00,Friday
11,363871222.1797888
47,150824294.37121935
71,76433894.3712194
346,74390399.99999988
993,143958059.99999995
1017,143958059.99999995
1497,404045445.4665266
1533,285108.16507584266
1557,285108.16507584266
2228,6134981.230653101
2366,2769026.261817997
4114,40031148.72180805
4126,16563764.683467458
4162,14199365.105798256
4210,22699508.3870229
4236,400991311.03963276
4348,0.0
4473,223229.46908554954
2,2, 1, 2, 0,11, 0.00,60.00,Friday
11,321290699.1449045
47,129499311.63351098
71,76557711.63351099
346,52941599.9999999
993,122509259.99999996
1017,122509259.99999996
1497,409542089.5097061
1533,513194.69713651677
1557,513194.69713651677
2228,9052661.528316964
2366,3302814.000533301
4114,41224868.9322607
4126,16589018.895897242
4162,14199365.105798256
4210,18789435.734194515
4236,405726080.8120362
4348,0.0
4473,215161.31662138363
2,2, 1, 2, 0,12, 0.00,60.00,Friday
11,319705937.29879358
47,128655883.0860222
71,75714283.08602222
346,52941599.9999999
993,122509259.99999996
1017,122509259.99999996
1497,391870566.90833178
1533,11952079.865633984
1557,11952079.865633984
2228,11171291.138466724
2366,3992317.533314627
4114,40471260.340170558
4126,16790711.576669776
4162,14199365.105798256
4210,16686420.028793054
4236,375926169.5093832
4348,0.0
4473,211822.70534119785
2,2, 1, 2, 0,13, 0.00,60.00,Friday
11,317934013.8306297
47,128242341.36298752
71,75300741.36298757
346,52941599.9999999
993,122509259.99999996
1017,122509259.99999996
1497,356578232.5044667
1533,11952079.865633984
1557,11952079.865633984
2228,12843492.875416298
2366,4634841.837692062
4114,39441738.40339828
4126,16855257.92145548
4162,14199365.105798256
4210,14688298.197252375
4236,339991310.8011406
4348,0.0
4473,208882.9915752742
2,2, 1, 2, 0,14, 0.00,60.00,Friday
11,311811222.9453618
47,127309878.69681746
71,74368278.69681748
346,52941599.9999999
993,122509259.99999996
1017,122509259.99999996
1497,272364899.0022116
1533,513194.69713651677
1557,513194.69713651677
2228,12582670.853897337
2366,4319945.494059901
4114,37217447.2136006
4126,16900311.77699784
4162,14199365.105798256
4210,11987529.448071409
4236,267531758.81101514
4348,0.0
4473,204436.73297505978
2,2, 1, 2, 0,15, 0.00,60.00,Friday
11,307541399.1726141
47,127672452.58119098
71,74730852.58119099
346,52941599.9999999
993,122509259.99999996
1017,122509259.99999996
1497,219880162.13483853
1533,427662.2476137639
1557,427662.2476137639
2228,10129300.780987114
2366,3636936.942019067
4114,35653910.93418596
4126,16939549.072486648
4162,14199365.105798256
4210,11374574.035820909
4236,215815562.9452057
4348,0.0
4473,201900.84042923037
2,2, 1, 2, 0,16, 0.00,60.00,Friday
11,303450190.240615
47,126227916.83802535
71,73286316.83802536
346,52941599.9999999
993,122509259.99999996
1017,122509259.99999996
1497,183364485.62920637
1533,427662.2476137639
1557,427662.2476137639
2228,9498753.426356975
2366,3152418.9158421095
4114,34443274.377936709
4126,17085798.483618659
4162,14199365.105798256
4210,10569808.792515472
4236,179784404.46575053
4348,0.0
4473,201176.80578054593
2,2, 1, 2, 0,17, 0.00,60.00,Friday
11,306572973.5164994
47,130067784.78063429
71,77126184.78063432
346,52941599.9999999
993,122509259.99999996
1017,122509259.99999996
1497,215486263.5932215
1533,29024875.168857416
1557,29024875.168857416
2228,9171293.29706881
2366,3646176.850303814
4114,34523979.33127559
4126,17047364.1784124
4162,14199365.105798256
4210,10099487.036692264
4236,182815211.57406027
4348,0.0
4473,201169.07082854663
2,2, 1, 2, 0,18, 0.00,60.00,Friday
11,298573077.0659843
47,123776342.99999996
71,70834742.99999997
346,52941599.9999999
993,118102859.99999997
1017,118102859.99999997
1497,247522302.95782838
1533,29024875.168857416
1557,29024875.168857416
2228,9379601.965361348
2366,3325777.822499629
4114,35531638.87976682
4126,16864465.148348508
4162,14199365.105798256
4210,11580822.236366205
4236,215171649.96647138
4348,0.0
4473,201810.98449008278
2,2, 1, 2, 0,19, 0.00,60.00,Friday
11,332491908.2174642
47,143344268.99999986
71,47505068.99999999
346,95839199.99999984
993,135564839.99999989
1017,135564839.99999989
1497,203154388.9204163
1533,28597212.921243654
1557,28597212.921243654
2228,8777886.482172188
2366,2930890.973910707
4114,32573914.35711695
4126,16647264.75053147
4162,14199365.105798256
4210,12026442.89522895
4236,171626285.02526198
4348,0.0
4473,204555.4829464277
2,2, 1, 2, 0,20, 0.00,60.00,Friday
11,390141583.67491129
47,171942668.99999974
71,47505068.99999999
346,124437599.9999998
993,164163239.99999974
1017,164163239.99999974
1497,166968231.79748056
1533,0.0
1557,0.0
2228,7174811.943202181
2366,2594429.643842144
4114,31414439.904187289
4126,16532209.213277042
4162,14199365.105798256
4210,15238235.998496782
4236,164373802.15363843
4348,0.0
4473,208186.82902532005
2,2, 1, 2, 0,21, 0.00,60.00,Friday
11,411127886.63931086
47,180270629.9999997
71,41533829.999999988
346,138736799.9999998
993,169616699.99999974
1017,169616699.99999974
1497,211114290.67550779
1533,0.0
1557,0.0
2228,6329147.378222795
2366,2560028.5348424508
4114,31524750.9741918
4126,16519577.605455207
4162,14199365.105798256
4210,23165348.15327887
4236,208554262.14066536
4348,0.0
4473,221310.13361776595
2,2, 1, 2, 0,22, 0.00,60.00,Friday
11,333906305.7571993
47,143777915.9999998
71,19340315.999999998
346,124437599.9999998
993,132085079.9999998
1017,132085079.9999998
1497,36754453.95731794
1533,0.0
1557,0.0
2228,4659318.902442595
2366,1718631.0771516669
4114,26239627.9264707
4126,10490501.918585619
4162,14199365.105798256
4210,27144362.928286423
4236,35035822.88016628
4348,0.0
4473,0.0
2,2, 1, 2, 0,23, 0.00,60.00,Friday
11,256785519.15756355
47,96788438.99999984
71,5971238.999999999
346,90817199.99999984
993,90768869.99999985
1017,90768869.99999985
1497,1617599.630597032
1533,0.0
1557,0.0
2228,2547345.8687938235
2366,1617599.630597032
4114,24689867.024383874
4126,10490501.918585619
4162,14199365.105798256
4210,41990997.26438613
4236,0.0
4348,0.0
4473,0.0
2,2, 1, 2, 0,24, 0.00,60.00,Friday
11,175720694.60789154
47,52754678.99999992
71,4835078.999999999
346,47919599.99999992
993,47320469.999999929
1017,47320469.999999929
1497,1051014.9457731746
1533,0.0
1557,0.0
2228,1626288.3922543796
2366,1051014.9457731746
4114,24689867.024383874
4126,10490501.918585619
4162,14199365.105798256
4210,49329390.19125334
4236,0.0
4348,0.0
4473,0.0
2,3, 1, 3, 0, 1, 0.00,60.00,Saturday
11,68296275.17262495
47,24156278.99999996
71,4835078.999999999
346,19321199.999999968
993,18722069.99999997
1017,18722069.99999997
1497,7150682.912359565
1533,0.0
1557,0.0
2228,2502931.152729996
2366,1334094.7129633434
4114,22914995.019895007
4126,8458341.339612136
4162,14199365.105798256
4210,0.0
4236,5816588.199396222
4348,0.0
4473,0.0
2,3, 1, 3, 0, 2, 0.00,60.00,Saturday
11,69872369.60675846
47,24156278.99999996
71,4835078.999999999
346,19321199.999999968
993,18722069.99999997
1017,18722069.99999997
1497,43265118.35262285
1533,0.0
1557,0.0
2228,2481248.0488243235
2366,1327182.8263041806
4114,24512772.557934189
4126,8458341.339612136
4162,14199365.105798256
4210,0.0
4236,41937935.52631868
4348,0.0
4473,0.0
2,3, 1, 3, 0, 3, 0.00,60.00,Saturday
11,71102722.03629977
47,24156278.99999996
71,4835078.999999999
346,19321199.999999968
993,18722069.99999997
1017,18722069.99999997
1497,90401529.60614589
1533,0.0
1557,0.0
2228,1625992.2616097287
2366,1313728.7689238848
4114,26598380.774690097
4126,8458341.339612136
4162,14199365.105798256
4210,0.0
4236,89087800.83722201
4348,0.0
4473,0.0
2,3, 1, 3, 0, 4, 0.00,60.00,Saturday
11,71952381.12835759
47,24156278.99999996
71,4835078.999999999
346,19321199.999999968
993,18722069.99999997
1017,18722069.99999997
1497,128024790.45220688
1533,0.0
1557,0.0
2228,799335.0240958775
2366,1040105.7242682678
4114,28274697.10426177
4126,8458341.339612136
4162,14199365.105798256
4210,0.0
4236,126984684.7279386
4348,0.0
4473,0.0
2,3, 1, 3, 0, 5, 0.00,60.00,Saturday
11,73921353.91208628
47,24156278.99999996
71,4835078.999999999
346,19321199.999999968
993,18722069.99999997
1017,18722069.99999997
1497,154465670.11976028
1533,0.0
1557,0.0
2228,1598746.2991134537
2366,1040418.2786620914
4114,29444258.612972879
4126,8458341.339612136
4162,14199365.105798256
4210,0.0
4236,153425251.84109817
4348,0.0
4473,0.0
2,3, 1, 3, 0, 6, 0.00,60.00,Saturday
11,185750377.86000244
47,52754678.99999992
71,4835078.999999999
346,47919599.99999992
993,47320469.999999929
1017,47320469.999999929
1497,138839107.1237062
1533,0.0
1557,0.0
2228,799490.831277025
2366,1309065.8019159749
4114,35473333.237554389
4126,15236715.698420184
4162,14199365.105798256
4210,49294593.66414294
4236,137530041.32179023
4348,0.0
4473,107811.12702811255
2,3, 1, 3, 0, 7, 0.00,60.00,Saturday
11,277696951.0719695
47,80361638.99999988
71,5971238.999999999
346,74390399.99999988
993,69320069.9999999
1017,69320069.9999999
1497,1343721604.6322764
1533,28597212.921243654
1557,28597212.921243654
2228,1612406.5051380119
2366,1070553.9917260402
4114,75539691.29486433
4126,25681588.98625632
4162,14199365.105798256
4210,49425926.70653655
4236,1314053837.7193065
4348,0.0
4473,1437217.5654308266
2,3, 1, 3, 0, 8, 0.00,60.00,Saturday
11,265859850.28509356
47,83885100.38616532
71,9494700.386165446
346,74390399.99999988
993,73192139.99999988
1017,73192139.99999988
1497,988737859.6500268
1533,28597212.921243654
1557,28597212.921243654
2228,4527409.233802918
2366,1965053.2768054377
4114,54035889.35131501
4126,16569766.330119549
4162,14199365.105798256
4210,49443243.24073444
4236,958175593.4519777
4348,0.0
4473,776068.0730759616
2,3, 1, 3, 0, 9, 0.00,60.00,Saturday
11,293306305.87030407
47,100716610.57136576
71,26326210.571365894
346,74390399.99999988
993,90883619.99999987
1017,90883619.99999987
1497,746369097.1212493
1533,285108.16507584266
1557,285108.16507584266
2228,4706277.724479398
2366,2051159.969190463
4114,47067194.38883719
4126,16519577.605455207
4162,14199365.105798256
4210,49397033.39025059
4236,744032828.9869831
4348,0.0
4473,535569.7953712217
2,3, 1, 3, 0,10, 0.00,60.00,Saturday
11,328805420.6484816
47,117936248.83150348
71,43545848.8315036
346,74390399.99999988
993,114116039.99999988
1017,114116039.99999988
1497,522128744.53455498
1533,285108.16507584266
1557,285108.16507584266
2228,5820742.524589401
2366,2420897.4264257668
4114,41126786.91233246
4126,16563835.670269538
4162,14199365.105798256
4210,49473997.8683766
4236,519422738.94305339
4348,0.0
4473,331604.51167984007
2,3, 1, 3, 0,11, 0.00,60.00,Saturday
11,316581461.45106777
47,116535176.87873411
71,63593576.87873414
346,52941599.9999999
993,115899659.99999997
1017,115899659.99999997
1497,380529339.30061277
1533,513194.69713651677
1557,513194.69713651677
2228,8010784.981499501
2366,2918959.463204366
4114,38094338.88580176
4126,16646968.850632627
4162,14199365.105798256
4210,37798057.61327071
4236,377097185.14027187
4348,0.0
4473,243443.09176169913
2,3, 1, 3, 0,12, 0.00,60.00,Saturday
11,298971459.70044508
47,116502025.09930687
71,63560425.09930688
346,52941599.9999999
993,115899659.99999997
1017,115899659.99999997
1497,286518815.3377532
1533,11952079.865633984
1557,11952079.865633984
2228,11327045.39447619
2366,3356135.169858758
4114,35530383.311268407
4126,16862135.595125505
4162,14199365.105798256
4210,19495959.500957394
4236,271210600.30226048
4348,0.0
4473,216386.3944362862
2,3, 1, 3, 0,13, 0.00,60.00,Saturday
11,288018837.2606919
47,113064753.04402907
71,60123153.0440291
346,52941599.9999999
993,114247259.99999997
1017,114247259.99999997
1497,229855284.66135634
1533,11952079.865633984
1557,11952079.865633984
2228,12252208.765879777
2366,3665533.318816275
4114,34175528.393588017
4126,16939202.922073224
4162,14199365.105798256
4210,14052340.41105217
4236,214237671.47690607
4348,18757.568703821496
4473,207989.07743912476
2,3, 1, 3, 0,14, 0.00,60.00,Saturday
11,284637411.88159027
47,113073568.04046932
71,60131968.04046933
346,52941599.9999999
993,114247259.99999997
1017,114247259.99999997
1497,174679860.8295665
1533,513194.69713651677
1557,513194.69713651677
2228,11671219.98944331
2366,3727448.831186422
4114,33197279.510324249
4126,16986923.326036347
4162,14199365.105798256
4210,11921234.679875914
4236,170439217.30124358
4348,322782.3127791218
4473,204067.3486985012
2,3, 1, 3, 0,15, 0.00,60.00,Saturday
11,282484523.8949537
47,113181107.52451805
71,60239507.52451806
346,52941599.9999999
993,114247259.99999997
1017,114247259.99999997
1497,151069047.00645758
1533,427662.2476137639
1557,427662.2476137639
2228,10017938.444489539
2366,3215390.086001839
4114,32730453.30181748
4126,17049295.364893129
4162,14199365.105798256
4210,11541424.929053352
4236,147425994.67284198
4348,564033.2966990168
4473,202306.3983763971
2,3, 1, 3, 0,16, 0.00,60.00,Saturday
11,282051295.94692328
47,113490065.70237476
71,60548465.702374789
346,52941599.9999999
993,114247259.99999997
1017,114247259.99999997
1497,138331405.8051058
1533,427662.2476137639
1557,427662.2476137639
2228,9839908.894114454
2366,3126332.7931012616
4114,32578390.804447704
4126,17143750.155207986
4162,14199365.105798256
4210,11348003.553868188
4236,134777410.76439078
4348,346382.209274921
4473,201284.78284331657
2,3, 1, 3, 0,17, 0.00,60.00,Saturday
11,286451758.25628277
47,117902246.30029066
71,64960646.300290677
346,52941599.9999999
993,114247259.99999997
1017,114247259.99999997
1497,170351972.95523278
1533,29024875.168857416
1557,29024875.168857416
2228,9737926.230876096
2366,3114893.005045696
4114,32909850.421841988
4126,17327812.387505879
4162,14199365.105798256
4210,11412599.39105587
4236,138212204.78132967
4348,40764.07770456646
4473,201111.83451370375
2,3, 1, 3, 0,18, 0.00,60.00,Saturday
11,280480377.8759352
47,111937382.99999996
71,64017782.99999998
346,47919599.99999992
993,113145659.99999997
1017,113145659.99999997
1497,210379410.26950539
1533,28597212.921243654
1557,28597212.921243654
2228,9611367.231493565
2366,2719441.752278113
4114,33547080.177167328
4126,16961716.937417814
4162,14199365.105798256
4210,12035505.25133201
4236,179062755.59598357
4348,0.0
4473,203382.21594242409
2,3, 1, 3, 0,19, 0.00,60.00,Saturday
11,311061061.5275377
47,128942549.99999987
71,38125349.999999988
346,90817199.99999984
993,125066699.99999988
1017,125066699.99999988
1497,208588214.70474584
1533,28597212.921243654
1557,28597212.921243654
2228,9234763.097289278
2366,2814092.744266668
4114,31841743.009492395
4126,16519577.605455207
4162,14199365.105798256
4210,15766448.851684083
4236,177176909.03923554
4348,0.0
4473,208856.56907227176
2,3, 1, 3, 0,20, 0.00,60.00,Saturday
11,317539612.6320486
47,142745273.9999998
71,23329673.999999994
346,119415599.9999998
993,138176819.9999998
1017,138176819.9999998
1497,236408826.89397774
1533,0.0
1557,0.0
2228,7082242.674662063
2366,2463069.0352098678
4114,29261388.096739189
4126,14487417.026481722
4162,14199365.105798256
4210,40424.03444257127
4236,233945757.85876788
4348,0.0
4473,233463.82620516129
2,3, 1, 3, 0,21, 0.00,60.00,Saturday
11,345223151.1999372
47,157044473.99999977
71,23329673.999999994
346,133714799.99999979
993,152476019.99999977
1017,152476019.99999977
1497,279081661.72712627
1533,0.0
1557,0.0
2228,5926304.192812143
2366,2068631.4442750097
4114,29464917.27935135
4126,14487417.026481722
4162,14199365.105798256
4210,48832.36761854477
4236,277013030.2828512
4348,0.0
4473,262603.36015545445