Program Version,EnergyPlus, Version 9.0.1-bb7ca4f0da, YMD=2019.12.18 16:29
1,5,Environment Title[],Latitude[deg],Longitude[deg],Time Zone[],Elevation[m]
2,8,Day of Simulation[],Month[],Day of Month[],DST Indicator[1=yes 0=no],Hour[],StartMinute[],EndMinute[],DayType
3,5,Cumulative Day of Simulation[],Month[],Day of Month[],DST Indicator[1=yes 0=no],DayType  ! When Daily Meters Requested
4,2,Cumulative Days of Simulation[],Month[]  ! When Monthly Meters Requested
5,1,Cumulative Days of Simulation[] ! When Run Period Meters Requested
6,1,Calendar Year of Simulation[] ! When Annual Meters Requested
346,1,NonComplianceLtg:InteriorLights:Electricity [J] !Hourly
11,1,Electricity:Facility [J] !Hourly
47,1,InteriorLights:Electricity [J] !Hourly
993,1,InteriorEquipment:Electricity [J] !Hourly
4114,1,Fans:Electricity [J] !Hourly
4471,1,Pumps:Electricity [J] !Hourly
4235,1,Heating:Electricity [J] !Hourly
4350,1,Cooling:Electricity [J] !Hourly
2228,1,WaterSystems:Electricity [J] !Hourly
1497,1,Gas:Facility [J] !Hourly
1533,1,InteriorEquipment:Gas [J] !Hourly
4222,1,Heating:Gas [J] !Hourly
2366,1,WaterSystems:Gas [J] !Hourly
1557,1,Receptacle:InteriorEquipment:Gas [J] !Hourly
1017,1,Receptacle:InteriorEquipment:Electricity [J] !Hourly
71,1,ComplianceLtg:InteriorLights:Electricity [J] !Hourly
4126,1,General:Fans:Electricity [J] !Hourly
4162,1,ProcessMotors:Fans:Electricity [J] !Hourly
End of Data Dictionary
1,SACRAMENTO-EXECUTIVE_724830_CZ2010,  38.50,-121.50,  -8.00,   5.00
2,1, 1, 1, 0, 1, 0.00,60.00,Holiday
11,66342324.171838279
47,24156278.99999996
71,4835078.999999999
346,19321199.999999968
993,18722069.99999997
1017,18722069.99999997
1497,1043087.7931304153
1533,0.0
1557,0.0
2228,806268.7264279339
2366,1043087.7931304153
4114,22657706.445410395
4126,8458341.339612136
4162,14199365.105798256
4222,0.0
4235,0.0
4350,0.0
4471,0.0
2,1, 1, 1, 0, 2, 0.00,60.00,Holiday
11,67148404.46415958
47,24156278.99999996
71,4835078.999999999
346,19321199.999999968
993,18722069.99999997
1017,18722069.99999997
1497,1043349.5067645926
1533,0.0
1557,0.0
2228,1612349.0187492283
2366,1043349.5067645926
4114,22657706.445410395
4126,8458341.339612136
4162,14199365.105798256
4222,0.0
4235,0.0
4350,0.0
4471,0.0
2,1, 1, 1, 0, 3, 0.00,60.00,Holiday
11,67148124.0065372
47,24156278.99999996
71,4835078.999999999
346,19321199.999999968
993,18722069.99999997
1017,18722069.99999997
1497,1304059.8427613
1533,0.0
1557,0.0
2228,1612068.561126868
2366,1304059.8427613
4114,22657706.445410395
4126,8458341.339612136
4162,14199365.105798256
4222,0.0
4235,0.0
4350,0.0
4471,0.0
2,1, 1, 1, 0, 4, 0.00,60.00,Holiday
11,68895942.8884666
47,24156278.99999996
71,4835078.999999999
346,19321199.999999968
993,18722069.99999997
1017,18722069.99999997
1497,1461011.8524101694
1533,0.0
1557,0.0
2228,1598814.5538149188
2366,1038007.2582656645
4114,24368965.217281775
4126,10160088.116864613
4162,14199365.105798256
4222,423004.59414450489
4235,36.65086827978327
4350,0.0
4471,49777.46650166427
2,1, 1, 1, 0, 5, 0.00,60.00,Holiday
11,70279206.06017159
47,24156278.99999996
71,4835078.999999999
346,19321199.999999968
993,18722069.99999997
1017,18722069.99999997
1497,3329778.9265624189
1533,0.0
1557,0.0
2228,799459.8651397366
2366,1038131.3490309152
4114,26501665.371370045
4126,12255312.363479786
4162,14199365.105798256
4222,2291647.5775315037
4235,214.37685762263329
4350,0.0
4471,99517.44680423371
2,1, 1, 1, 0, 6, 0.00,60.00,Holiday
11,131198799.07415244
47,52754678.99999992
71,4835078.999999999
346,47919599.99999992
993,47320469.999999929
1017,47320469.999999929
1497,66178048.08826801
1533,0.0
1557,0.0
2228,1599008.8085942977
2366,1306100.7504027903
4114,29399621.947766756
4126,15181011.468219012
4162,14199365.105798256
4222,64871947.33786523
4235,730.4213411708406
4350,0.0
4471,124288.89645027284
2,1, 1, 1, 0, 7, 0.00,60.00,Holiday
11,187598896.484093
47,74203478.99999988
71,4835078.999999999
346,69368399.9999999
993,68769269.9999999
1017,68769269.9999999
1497,418023330.7716459
1533,28597212.921243654
1557,28597212.921243654
2228,1612309.7014640305
2366,1043341.3565219084
4114,42888584.37659282
4126,15394199.775309515
4162,14199365.105798256
4222,388382776.4938803
4235,1011.3069448183962
4350,0.0
4471,124242.09909154607
2,1, 1, 1, 0, 8, 0.00,60.00,Holiday
11,180610078.34866119
47,74201021.66164673
71,4832621.661646834
346,69368399.9999999
993,68769269.9999999
1017,68769269.9999999
1497,275685207.81938698
1533,28597212.921243654
1557,28597212.921243654
2228,1654218.2020324988
2366,1324121.197817199
4114,35885132.17018171
4126,14287472.942453273
4162,14199365.105798256
4222,245763873.70032615
4235,1099.2860361456058
4350,0.0
4471,99337.02876422112
2,1, 1, 1, 0, 9, 0.00,60.00,Holiday
11,200426187.04763744
47,77869827.4972232
71,8501427.497223326
346,69368399.9999999
993,72641339.99999988
1017,72641339.99999988
1497,599618731.063509
1533,0.0
1557,0.0
2228,2524915.819028516
2366,1337840.3234427632
4114,46307474.49845888
4126,25959838.689290406
4162,14199365.105798256
4222,598280890.7400663
4235,81652.65847976
4350,0.0
4471,1000976.5744471499
2,1, 1, 1, 0,10, 0.00,60.00,Holiday
11,190455225.85051278
47,77828910.16524345
71,8460510.165243574
346,69368399.9999999
993,72641339.99999988
1017,72641339.99999988
1497,511680420.9969634
1533,0.0
1557,0.0
2228,2569298.6966505956
2366,1361295.4557738594
4114,37023348.857945557
4126,16631606.812977583
4162,14199365.105798256
4222,510319125.54118946
4235,58536.78314839839
4350,0.0
4471,333791.34752489739
2,1, 1, 1, 0,11, 0.00,60.00,Holiday
11,197128447.11790134
47,78229150.21988473
71,30309550.219884769
346,47919599.99999992
993,74424959.99999996
1017,74424959.99999996
1497,469084857.3829974
1533,0.0
1557,0.0
2228,5938723.548481554
2366,2234969.7505886077
4114,38264850.89738338
4126,16519577.605455207
4162,14199365.105798256
4222,466849887.63240876
4235,41038.51467089557
4350,0.0
4471,229723.93748092006
2,1, 1, 1, 0,12, 0.00,60.00,Holiday
11,197625105.00929816
47,78028628.63419378
71,30109028.634193824
346,47919599.99999992
993,74424959.99999996
1017,74424959.99999996
1497,459337983.42765209
1533,11438885.168497468
1557,11438885.168497468
2228,6896993.56548634
2366,2191492.8216703769
4114,38017395.107366289
4126,16519577.605455207
4162,14199365.105798256
4222,445707605.43748429
4235,37793.48883623016
4350,0.0
4471,219334.21341559455
2,1, 1, 1, 0,13, 0.00,60.00,Holiday
11,222869408.15148784
47,88265083.6757778
71,40345483.6757778
346,47919599.99999992
993,89913239.99999997
1017,89913239.99999997
1497,394543878.2127451
1533,11438885.168497468
1557,11438885.168497468
2228,7079877.209043649
2366,2456349.9190072098
4114,37375121.44834137
4126,16519577.605455207
4162,14199365.105798256
4222,380648643.1252404
4235,28585.303838113512
4350,0.0
4471,207500.51448700456
2,1, 1, 1, 0,14, 0.00,60.00,Holiday
11,221968804.9926827
47,88456801.29182247
71,40537201.29182249
346,47919599.99999992
993,89913239.99999997
1017,89913239.99999997
1497,334418576.6739311
1533,0.0
1557,0.0
2228,7085406.435231372
2366,2475493.7463526998
4114,36284729.152491349
4126,16519577.605455207
4162,14199365.105798256
4222,331943082.92757847
4235,24615.684432745158
4350,0.0
4471,204012.42870486569
2,1, 1, 1, 0,15, 0.00,60.00,Holiday
11,222077120.8157817
47,88814410.58572668
71,40894810.58572668
346,47919599.99999992
993,89913239.99999997
1017,89913239.99999997
1497,313510550.0151659
1533,0.0
1557,0.0
2228,7205764.359532887
2366,2427233.534303149
4114,35918820.15865912
4126,16519577.605455207
4162,14199365.105798256
4222,311083316.4808628
4235,22524.71780693171
4350,0.0
4471,202360.9940561671
2,1, 1, 1, 0,16, 0.00,60.00,Holiday
11,222054620.52973468
47,89011702.9215002
71,41092102.92150022
346,47919599.99999992
993,89913239.99999997
1017,89913239.99999997
1497,298394865.5541614
1533,0.0
1557,0.0
2228,7386945.777168783
2366,2138793.4333236159
4114,35519313.00758063
4126,16519577.605455207
4162,14199365.105798256
4222,296256072.1208378
4235,21586.132898948537
4350,0.0
4471,201832.6905862477
2,1, 1, 1, 0,17, 0.00,60.00,Holiday
11,222384932.01905794
47,89679419.09397859
71,41759819.09397861
346,47919599.99999992
993,89913239.99999997
1017,89913239.99999997
1497,304718336.19545367
1533,28597212.921243654
1557,28597212.921243654
2228,7553822.101780977
2366,2445821.0955883928
4114,35017800.604139778
4126,16519577.605455207
4162,14199365.105798256
4222,273675302.1786216
4235,19786.308177633906
4350,0.0
4471,200863.9109810242
2,1, 1, 1, 0,18, 0.00,60.00,Holiday
11,195033381.50588257
47,78647111.99999994
71,30727511.99999999
346,47919599.99999992
993,74424959.99999996
1017,74424959.99999996
1497,333793553.2143582
1533,28597212.921243654
1557,28597212.921243654
2228,6744249.64242853
2366,2415734.365657061
4114,34988439.656921509
4126,16519577.605455207
4162,14199365.105798256
4222,302780605.9274575
4235,25164.60315375976
4350,0.0
4471,203455.60337892458
2,1, 1, 1, 0,19, 0.00,60.00,Holiday
11,243880980.63298095
47,106749035.99999982
71,15931835.999999995
346,90817199.99999984
993,101834279.99999984
1017,101834279.99999984
1497,246455318.13703663
1533,28597212.921243654
1557,28597212.921243654
2228,5262138.247765167
2366,2007994.3060604176
4114,29789513.42949859
4126,14487417.026481722
4162,14199365.105798256
4222,215850110.90973256
4235,33943.482121843
4350,0.0
4471,212069.47359563603
2,1, 1, 1, 0,20, 0.00,60.00,Holiday
11,271697375.5977559
47,124250678.9999998
71,4835078.999999999
346,119415599.9999998
993,118816469.99999982
1017,118816469.99999982
1497,7780105.394915885
1533,0.0
1557,0.0
2228,5714067.616412468
2366,1990482.513557224
4114,22916158.981343688
4126,8458341.339612136
4162,14199365.105798256
4222,5789622.881358661
4235,0.0
4350,0.0
4471,0.0
2,1, 1, 1, 0,21, 0.00,60.00,Holiday
11,298221459.19590726
47,138549878.9999998
71,4835078.999999999
346,133714799.99999979
993,133115669.99999979
1017,133115669.99999979
1497,4938615.038549245
1533,0.0
1557,0.0
2228,3752576.803814009
2366,1722388.028115531
4114,22803333.39209354
4126,8458341.339612136
4162,14199365.105798256
4222,3216227.010433714
4235,0.0
4350,0.0
4471,0.0
2,1, 1, 1, 0,22, 0.00,60.00,Holiday
11,269473840.41214498
47,124250678.9999998
71,4835078.999999999
346,119415599.9999998
993,118816469.99999982
1017,118816469.99999982
1497,7508674.657081205
1533,0.0
1557,0.0
2228,3489696.2333102209
2366,1648856.1376198403
4114,22916995.178835025
4126,8458341.339612136
4162,14199365.105798256
4222,5859818.519461365
4235,0.0
4350,0.0
4471,0.0
2,1, 1, 1, 0,23, 0.00,60.00,Holiday
11,211009223.16237194
47,95652278.99999984
71,4835078.999999999
346,90817199.99999984
993,90218069.99999985
1017,90218069.99999985
1497,1061228.403132624
1533,0.0
1557,0.0
2228,2481167.7169617998
2366,1061228.403132624
4114,22657706.445410395
4126,8458341.339612136
4162,14199365.105798256
4222,0.0
4235,0.0
4350,0.0
4471,0.0
2,1, 1, 1, 0,24, 0.00,60.00,Holiday
11,123532323.34433791
47,52754678.99999992
71,4835078.999999999
346,47919599.99999992
993,47320469.999999929
1017,47320469.999999929
1497,1297550.7417743579
1533,0.0
1557,0.0
2228,799467.8989275619
2366,1297550.7417743579
4114,22657706.445410395
4126,8458341.339612136
4162,14199365.105798256
4222,0.0
4235,0.0
4350,0.0
4471,0.0
2,2, 1, 2, 0, 1, 0.00,60.00,Friday
11,66322425.0289981
47,24156278.99999996
71,4835078.999999999
346,19321199.999999968
993,18722069.99999997
1017,18722069.99999997
1497,1029967.1116600989
1533,0.0
1557,0.0
2228,786369.583587757
2366,1029967.1116600989
4114,22657706.445410395
4126,8458341.339612136
4162,14199365.105798256
4222,0.0
4235,0.0
4350,0.0
4471,0.0
2,2, 1, 2, 0, 2, 0.00,60.00,Friday
11,67133156.17465203
47,24156278.99999996
71,4835078.999999999
346,19321199.999999968
993,18722069.99999997
1017,18722069.99999997
1497,1300041.076655925
1533,0.0
1557,0.0
2228,1585543.761321141
2366,1034847.2523731873
4114,22669263.413330936
4126,8458341.339612136
4162,14199365.105798256
4222,265193.8242827377
4235,0.0
4350,0.0
4471,0.0
2,2, 1, 2, 0, 3, 0.00,60.00,Friday
11,68394665.3221262
47,24156278.99999996
71,4835078.999999999
346,19321199.999999968
993,18722069.99999997
1017,18722069.99999997
1497,4856055.966798288
1533,0.0
1557,0.0
2228,792884.160443124
2366,1035036.8537923915
4114,24673614.623343845
4126,10325324.490811067
4162,14199365.105798256
4222,3821019.113005896
4235,41.35721222856153
4350,0.0
4471,49776.181127047326
2,2, 1, 2, 0, 4, 0.00,60.00,Friday
11,70827693.57454512
47,24156278.99999996
71,4835078.999999999
346,19321199.999999968
993,18722069.99999997
1017,18722069.99999997
1497,17394500.57072845
1533,0.0
1557,0.0
2228,786387.3689823632
2366,1029988.3456797748
4114,27063185.128450499
4126,12255312.363479786
4162,14199365.105798256
4222,16364512.225048678
4235,268.69855224197826
4350,0.0
4471,99503.37856006905
2,2, 1, 2, 0, 5, 0.00,60.00,Friday
11,71368714.70793076
47,24156278.99999996
71,4835078.999999999
346,19321199.999999968
993,18722069.99999997
1017,18722069.99999997
1497,31871164.410248139
1533,0.0
1557,0.0
2228,786266.8483251315
2366,1030020.87798707
4114,27604174.47869031
4126,12255312.363479786
4162,14199365.105798256
4222,30841143.532261075
4235,468.22271031853088
4350,0.0
4471,99456.15820503625
2,2, 1, 2, 0, 6, 0.00,60.00,Friday
11,132089522.7339088
47,53890838.99999992
71,5971238.999999999
346,47919599.99999992
993,47871269.999999929
1017,47871269.999999929
1497,89975629.91705382
1533,0.0
1557,0.0
2228,786380.9932813364
2366,1036874.8379775919
4114,29440887.824742598
4126,14287472.942453273
4162,14199365.105798256
4222,88938755.07907622
4235,747.2078652488765
4350,0.0
4471,99397.70801969586
2,2, 1, 2, 0, 7, 0.00,60.00,Friday
11,215132720.48996989
47,80361638.99999988
71,5971238.999999999
346,74390399.99999988
993,69320069.9999999
1017,69320069.9999999
1497,1094697658.938502
1533,28597212.921243654
1557,28597212.921243654
2228,786403.9299985356
2366,1194347.6421354353
4114,63235007.52932379
4126,26569764.111619913
4162,14199365.105798256
4222,1064906098.375123
4235,99198.41790315746
4350,0.0
4471,1330401.6127446157
2,2, 1, 2, 0, 8, 0.00,60.00,Friday
11,226293781.84942074
47,95984982.18643244
71,21594582.186432568
346,74390399.99999988
993,83139479.99999988
1017,83139479.99999988
1497,731688363.0536897
1533,28882321.086319496
1557,28882321.086319496
2228,3458791.894014195
2366,1796639.3890633225
4114,43275477.25545112
4126,16598478.897948608
4162,14199365.105798256
4222,701009402.5783069
4235,67283.3392866207
4350,0.0
4471,367767.174236407
2,2, 1, 2, 0, 9, 0.00,60.00,Friday
11,284447516.42240819
47,125807105.97488487
71,51416705.974884998
346,74390399.99999988
993,112981499.99999987
1017,112981499.99999987
1497,569598290.472193
1533,285108.16507584266
1557,285108.16507584266
2228,4663195.181366421
2366,2450889.3239998987
4114,40689313.72925196
4126,16519577.605455207
4162,14199365.105798256
4222,566862292.9831172
4235,49878.782431683605
4350,0.0
4471,256522.75447327764
2,2, 1, 2, 0,10, 0.00,60.00,Friday
11,340775934.2774088
47,150824294.37121935
71,76433894.3712194
346,74390399.99999988
993,143958059.99999995
1017,143958059.99999995
1497,469386010.38802286
1533,285108.16507584266
1557,285108.16507584266
2228,6134981.163584115
2366,2768443.6787314035
4114,39601072.3690577
4126,16563764.676167177
4162,14199365.105798256
4222,466332458.54421558
4235,34294.882755545186
4350,0.0
4471,223231.49079224535
2,2, 1, 2, 0,11, 0.00,60.00,Friday
11,302032342.82162669
47,129499311.63351098
71,76557711.63351099
346,52941599.9999999
993,122509259.99999996
1017,122509259.99999996
1497,475333439.23697409
1533,513194.69713651677
1557,513194.69713651677
2228,9052661.364413789
2366,3303434.7546047528
4114,40725551.27677636
4126,16589101.00775546
4162,14199365.105798256
4222,471516809.7852328
4235,30398.12601260605
4350,0.0
4471,215160.42091303937
2,2, 1, 2, 0,12, 0.00,60.00,Friday
11,302621330.7571496
47,128655883.0860222
71,75714283.08602222
346,52941599.9999999
993,122509259.99999996
1017,122509259.99999996
1497,457586867.3389183
1533,11952079.865633984
1557,11952079.865633984
2228,11171290.954251335
2366,3992317.798189393
4114,40044144.67304808
4126,16790785.565942654
4162,14199365.105798256
4222,441642469.67509487
4235,28929.680782078573
4350,0.0
4471,211822.36304599286
2,2, 1, 2, 0,13, 0.00,60.00,Friday
11,302914558.7936627
47,128242341.36298752
71,75300741.36298757
346,52941599.9999999
993,122509259.99999996
1017,122509259.99999996
1497,422027605.727448
1533,11952079.865633984
1557,11952079.865633984
2228,12843455.445085641
2366,4634391.956698073
4114,39083695.34745389
4126,16855326.319102333
4162,14199365.105798256
4222,405441133.90511599
4235,26924.128373234653
4350,0.0
4471,208882.50976255869
2,2, 1, 2, 0,14, 0.00,60.00,Friday
11,299581234.81454947
47,127309878.69681746
71,74368278.69681748
346,52941599.9999999
993,122509259.99999996
1017,122509259.99999996
1497,336610076.6927432
1533,513194.69713651677
1557,513194.69713651677
2228,12582707.793743546
2366,4320385.735297529
4114,36951815.49693237
4126,16900364.955889156
4162,14199365.105798256
4222,331776496.2603091
4235,23136.507608805252
4350,0.0
4471,204436.3194473948
2,2, 1, 2, 0,15, 0.00,60.00,Friday
11,295977385.2410816
47,127672452.58119098
71,74730852.58119099
346,52941599.9999999
993,122509259.99999996
1017,122509259.99999996
1497,283163361.14850476
1533,427662.2476137639
1557,427662.2476137639
2228,10129300.612595778
2366,3636938.090694522
4114,35444108.05953369
4126,16939589.83793789
4162,14199365.105798256
4222,279098760.81019648
4235,20363.788654977136
4350,0.0
4471,201900.1991062679
2,2, 1, 2, 0,16, 0.00,60.00,Friday
11,292708190.19775357
47,126227916.83802535
71,73286316.83802536
346,52941599.9999999
993,122509259.99999996
1017,122509259.99999996
1497,246316665.03256009
1533,427662.2476137639
1557,427662.2476137639
2228,9498753.265309604
2366,3152418.1564132848
4114,34251678.64303919
4126,17085881.42669087
4162,14199365.105798256
4222,242736584.62853305
4235,19405.133547556085
4350,0.0
4471,201176.317831961
2,2, 1, 2, 0,17, 0.00,60.00,Friday
11,296305317.2182673
47,130067784.78063429
71,77126184.78063432
346,52941599.9999999
993,122509259.99999996
1017,122509259.99999996
1497,277836549.67860379
1533,29024875.168857416
1557,29024875.168857416
2228,9171244.888433896
2366,3646175.567518036
4114,34336392.923554677
4126,17047466.03197129
4162,14199365.105798256
4222,245165498.94222833
4235,19465.84995208579
4350,0.0
4471,201168.7756925259
2,2, 1, 2, 0,18, 0.00,60.00,Friday
11,286777812.6582371
47,123776342.99999996
71,70834742.99999997
346,52941599.9999999
993,118102859.99999997
1017,118102859.99999997
1497,310186386.32496026
1533,29024875.168857416
1557,29024875.168857416
2228,9379601.29844062
2366,3325188.9670358139
4114,35296758.42716499
4126,16864481.76554008
4162,14199365.105798256
4222,277836322.189067
4235,20439.4484804449
4350,0.0
4471,201810.48415121786
2,2, 1, 2, 0,19, 0.00,60.00,Friday
11,320419636.4102447
47,143344268.99999986
71,47505068.99999999
346,95839199.99999984
993,135564839.99999989
1017,135564839.99999989
1497,265099266.05132396
1533,28597212.921243654
1557,28597212.921243654
2228,8777933.577734292
2366,2930891.65047883
4114,32504301.780874626
4126,16647276.970648691
4162,14199365.105798256
4222,233571161.47960145
4235,23736.619526391118
4350,0.0
4471,204555.4321097746
2,2, 1, 2, 0,20, 0.00,60.00,Friday
11,374913125.98069497
47,171942668.99999974
71,47505068.99999999
346,124437599.9999998
993,164163239.99999974
1017,164163239.99999974
1497,228459790.57722209
1533,0.0
1557,0.0
2228,7174753.897520192
2366,2594418.1203650806
4114,31397610.712880665
4126,16532213.091001248
4162,14199365.105798256
4222,225865372.456857
4235,26665.568255451733
4350,0.0
4471,208186.80203904905
2,2, 1, 2, 0,21, 0.00,60.00,Friday
11,387977778.8563683
47,180270629.9999997
71,41533829.999999988
346,138736799.9999998
993,169616699.99999974
1017,169616699.99999974
1497,272603605.1414611
1533,0.0
1557,0.0
2228,6329204.780798547
2366,2560570.8006237207
4114,31505808.54588601
4126,16519577.605455207
4162,14199365.105798256
4222,270043034.3408373
4235,34125.402619743305
4350,0.0
4471,221310.12706447952
2,2, 1, 2, 0,22, 0.00,60.00,Friday
11,306695824.4226142
47,143777915.9999998
71,19340315.999999998
346,124437599.9999998
993,132085079.9999998
1017,132085079.9999998
1497,98514970.93490123
1533,0.0
1557,0.0
2228,4659318.948946636
2366,1718631.1706089364
4114,26173509.473667936
4126,10490501.918585619
4162,14199365.105798256
4222,96796339.76429227
4235,0.0
4350,0.0
4471,0.0
2,2, 1, 2, 0,23, 0.00,60.00,Friday
11,214794521.88649965
47,96788438.99999984
71,5971238.999999999
346,90817199.99999984
993,90768869.99999985
1017,90768869.99999985
1497,62783068.86847506
1533,0.0
1557,0.0
2228,2547345.862116053
2366,1617599.1152802692
4114,24689867.024383874
4126,10490501.918585619
4162,14199365.105798256
4222,61165469.753194797
4235,0.0
4350,0.0
4471,0.0
2,2, 1, 2, 0,24, 0.00,60.00,Friday
11,126391304.39076393
47,52754678.99999992
71,4835078.999999999
346,47919599.99999992
993,47320469.999999929
1017,47320469.999999929
1497,62216485.41845215
1533,0.0
1557,0.0
2228,1626288.3663800886
2366,1051015.6652573553
4114,24689867.024383874
4126,10490501.918585619
4162,14199365.105798256
4222,61165469.753194797
4235,0.0
4350,0.0
4471,0.0
2,3, 1, 3, 0, 1, 0.00,60.00,Saturday
11,68294423.25824236
47,24156278.99999996
71,4835078.999999999
346,19321199.999999968
993,18722069.99999997
1017,18722069.99999997
1497,7585349.676950837
1533,0.0
1557,0.0
2228,2502931.277398669
2366,1334095.4578127459
4114,22913142.980843735
4126,8458341.339612136
4162,14199365.105798256
4222,6251254.2191380909
4235,0.0
4350,0.0
4471,0.0
2,3, 1, 3, 0, 2, 0.00,60.00,Saturday
11,69802453.67621666
47,24156278.99999996
71,4835078.999999999
346,19321199.999999968
993,18722069.99999997
1017,18722069.99999997
1497,45246757.64961473
1533,0.0
1557,0.0
2228,2481248.009048331
2366,1327182.1616558838
4114,24442856.667168388
4126,8458341.339612136
4162,14199365.105798256
4222,43919575.48795885
4235,0.0
4350,0.0
4471,0.0
2,3, 1, 3, 0, 3, 0.00,60.00,Saturday
11,70897547.5458309
47,24156278.99999996
71,4835078.999999999
346,19321199.999999968
993,18722069.99999997
1017,18722069.99999997
1497,93287564.79626729
1533,0.0
1557,0.0
2228,1625992.2354752715
2366,1313728.5053666637
4114,26393206.310355676
4126,8458341.339612136
4162,14199365.105798256
4222,91973836.29090062
4235,0.0
4350,0.0
4471,0.0
2,3, 1, 3, 0, 4, 0.00,60.00,Saturday
11,71706253.03754856
47,24156278.99999996
71,4835078.999999999
346,19321199.999999968
993,18722069.99999997
1017,18722069.99999997
1497,131712997.39181856
1533,0.0
1557,0.0
2228,799335.0111597005
2366,1040105.1915847702
4114,28028569.026388915
4126,8458341.339612136
4162,14199365.105798256
4222,130672892.20023376
4235,0.0
4350,0.0
4471,0.0
2,3, 1, 3, 0, 5, 0.00,60.00,Saturday
11,73654572.19414149
47,24156278.99999996
71,4835078.999999999
346,19321199.999999968
993,18722069.99999997
1017,18722069.99999997
1497,159223481.6435341
1533,0.0
1557,0.0
2228,1598746.3907493165
2366,1040417.7583591073
4114,29177476.80339223
4126,8458341.339612136
4162,14199365.105798256
4222,158183063.885175
4235,0.0
4350,0.0
4471,0.0
2,3, 1, 3, 0, 6, 0.00,60.00,Saturday
11,136162182.8219379
47,52754678.99999992
71,4835078.999999999
346,47919599.99999992
993,47320469.999999929
1017,47320469.999999929
1497,203716498.30575527
1533,0.0
1557,0.0
2228,799491.0231611038
2366,1309066.0162491597
4114,35179544.68479054
4126,15236715.698420184
4162,14199365.105798256
4222,202407432.28950615
4235,186.9869581173046
4350,0.0
4471,107811.12702813791
2,3, 1, 3, 0, 7, 0.00,60.00,Saturday
11,227543618.25065086
47,80361638.99999988
71,5971238.999999999
346,74390399.99999988
993,69320069.9999999
1017,69320069.9999999
1497,1456043692.4492696
1533,28597212.921243654
1557,28597212.921243654
2228,1612497.310678106
2366,1069160.2882910469
4114,74639348.95070865
4126,25748487.64268348
4162,14199365.105798256
4222,1426377319.2397352
4235,114573.24748546843
4350,0.0
4471,1495489.7417788543
2,3, 1, 3, 0, 8, 0.00,60.00,Saturday
11,215009762.40409244
47,83885100.38616532
71,9494700.386165446
346,74390399.99999988
993,73192139.99999988
1017,73192139.99999988
1497,1055893257.2733027
1533,28597212.921243654
1557,28597212.921243654
2228,4527409.231439175
2366,1966465.7379857433
4114,52543588.47279556
4126,16566046.670205327
4162,14199365.105798256
4222,1025329578.6140733
4235,91669.06509828328
4350,0.0
4471,769855.2485941509
2,3, 1, 3, 0, 9, 0.00,60.00,Saturday
11,243035503.0198651
47,100716610.57136576
71,26326210.571365894
346,74390399.99999988
993,90883619.99999987
1017,90883619.99999987
1497,815309603.6354339
1533,285108.16507584266
1557,285108.16507584266
2228,4706277.616334251
2366,2051160.8175129398
4114,46116310.10719825
4126,16519577.605455207
4162,14199365.105798256
4222,812973334.6528452
4235,76948.56676780977
4350,0.0
4471,535736.1581991143
2,3, 1, 3, 0,10, 0.00,60.00,Saturday
11,278886646.2881182
47,117936248.83150348
71,43545848.8315036
346,74390399.99999988
993,114116039.99999988
1017,114116039.99999988
1497,590864186.4711871
1533,285108.16507584266
1557,285108.16507584266
2228,5820742.5855581029
2366,2420895.194107391
4114,40627209.15087154
4126,16563835.684291853
4162,14199365.105798256
4222,588158183.1120039
4235,54831.005043251425
4350,0.0
4471,331574.7151419375
2,3, 1, 3, 0,11, 0.00,60.00,Saturday
11,278571479.8070141
47,116535176.87873411
71,63593576.87873414
346,52941599.9999999
993,115899659.99999997
1017,115899659.99999997
1497,449284545.0133988
1533,513194.69713651677
1557,513194.69713651677
2228,8010784.841262318
2366,2918078.0952673677
4114,37843710.59201458
4126,16646965.626976848
4162,14199365.105798256
4222,445853272.22099497
4235,38698.739526181686
4350,0.0
4471,243448.75547700784
2,3, 1, 3, 0,12, 0.00,60.00,Saturday
11,279379542.1805198
47,116502025.09930687
71,63560425.09930688
346,52941599.9999999
993,115899659.99999997
1017,115899659.99999997
1497,352243802.60982927
1533,11952079.865633984
1557,11952079.865633984
2228,11327088.620232117
2366,3356137.7404492667
4114,35403909.926078978
4126,16862104.886709915
4162,14199365.105798256
4222,336935585.00374606
4235,30470.455240823896
4350,0.0
4471,216388.0796611802
2,3, 1, 3, 0,13, 0.00,60.00,Saturday
11,273913495.7134972
47,113064753.04402907
71,60123153.0440291
346,52941599.9999999
993,114247259.99999997
1017,114247259.99999997
1497,294600065.0256182
1533,11952079.865633984
1557,11952079.865633984
2228,12252162.032941238
2366,3666526.5216529567
4114,34096875.75263746
4126,16939174.994049316
4162,14199365.105798256
4222,278981458.6383313
4235,26080.60258461393
4350,18374.681975830175
4471,207989.59932908475
2,3, 1, 3, 0,14, 0.00,60.00,Saturday
11,272623901.8766047
47,113073568.04046932
71,60131968.04046933
346,52941599.9999999
993,114247259.99999997
1017,114247259.99999997
1497,238475438.16126267
1533,513194.69713651677
1557,513194.69713651677
2228,11671231.745483935
2366,3727445.7456250519
4114,33086429.365281717
4126,16986903.688649116
4162,14199365.105798256
4222,234234797.7185011
4235,22639.6971195952
4350,318705.55109710196
4471,204067.47715312235
2,3, 1, 3, 0,15, 0.00,60.00,Saturday
11,270798198.7634171
47,113181107.52451805
71,60239507.52451806
346,52941599.9999999
993,114247259.99999997
1017,114247259.99999997
1497,213926025.38047023
1533,427662.2476137639
1557,427662.2476137639
2228,10017980.556535548
2366,3214242.672385304
4114,32569399.41322746
4126,17049270.422501048
4162,14199365.105798256
4222,210284120.46047116
4235,20858.274535327026
4350,559286.4638963556
4471,202306.53070457339
2,3, 1, 3, 0,16, 0.00,60.00,Saturday
11,270548024.4167149
47,113490065.70237476
71,60548465.702374789
346,52941599.9999999
993,114247259.99999997
1017,114247259.99999997
1497,200837366.69089119
1533,427662.2476137639
1557,427662.2476137639
2228,9839857.363518358
2366,3126334.9022884045
4114,32407706.274405749
4126,17143698.437085008
4162,14199365.105798256
4222,197283369.54098899
4235,19414.877156020964
4350,342434.80154338388
4471,201285.39771677298
2,3, 1, 3, 0,17, 0.00,60.00,Saturday
11,274883704.40328529
47,117902246.30029066
71,64960646.300290677
346,52941599.9999999
993,114247259.99999997
1017,114247259.99999997
1497,233950211.1276648
1533,29024875.168857416
1557,29024875.168857416
2228,9737926.4063113
2366,3114887.5014674195
4114,32736175.69559241
4126,17316179.216625859
4162,14199365.105798256
4222,201810448.45734
4235,19261.641907657675
4350,39717.91230401411
4471,201116.4468792504
2,3, 1, 3, 0,18, 0.00,60.00,Saturday
11,268218557.80267317
47,111937382.99999996
71,64017782.99999998
346,47919599.99999992
993,113145659.99999997
1017,113145659.99999997
1497,274195982.60084179
1533,28597212.921243654
1557,28597212.921243654
2228,9611367.405496899
2366,2719446.2371270318
4114,33298355.428924476
4126,16961706.12862575
4162,14199365.105798256
4222,242879323.4424711
4235,22409.642453070934
4350,0.0
4471,203382.32579886536
2,3, 1, 3, 0,19, 0.00,60.00,Saturday
11,295233326.331915
47,128942549.99999987
71,38125349.999999988
346,90817199.99999984
993,125066699.99999988
1017,125066699.99999988
1497,271707688.35608527
1533,28597212.921243654
1557,28597212.921243654
2228,9234817.873339918
2366,2815173.074463467
4114,31753224.621580084
4126,16519577.605455207
4162,14199365.105798256
4222,240295302.36037816
4235,27177.27807280689
4350,0.0
4471,208856.55892247777
2,3, 1, 3, 0,20, 0.00,60.00,Saturday
11,317490535.4690519
47,142745273.9999998
71,23329673.999999994
346,119415599.9999998
993,138176819.9999998
1017,138176819.9999998
1497,237158984.1369509
1533,0.0
1557,0.0
2228,7082242.820036443
2366,2463066.4549731735
4114,29212310.631985438
4126,14487417.026481722
4162,14199365.105798256
4222,234695917.68197776
4235,40424.03612695847
4350,0.0
4471,233463.9809034272
2,3, 1, 3, 0,21, 0.00,60.00,Saturday
11,345151146.79866227
47,157044473.99999977
71,23329673.999999994
346,133714799.99999979
993,152476019.99999977
1017,152476019.99999977
1497,280067802.1411225
1533,0.0
1557,0.0
2228,5926304.52084395
2366,2068631.8395316294
4114,29392912.71615414
4126,14487417.026481722
4162,14199365.105798256
4222,277999170.3015908
4235,48832.40096796253
4350,0.0
4471,262603.1606965038