Program Version,EnergyPlus, Version 9.0.1-bb7ca4f0da, YMD=2019.11.06 14:30
1,5,Environment Title[],Latitude[deg],Longitude[deg],Time Zone[],Elevation[m]
2,8,Day of Simulation[],Month[],Day of Month[],DST Indicator[1=yes 0=no],Hour[],StartMinute[],EndMinute[],DayType
3,5,Cumulative Day of Simulation[],Month[],Day of Month[],DST Indicator[1=yes 0=no],DayType  ! When Daily Meters Requested
4,2,Cumulative Days of Simulation[],Month[]  ! When Monthly Meters Requested
5,1,Cumulative Days of Simulation[] ! When Run Period Meters Requested
6,1,Calendar Year of Simulation[] ! When Annual Meters Requested
11,1,Electricity:Facility [J] !Hourly
968,1,Cooling:Electricity [J] !Hourly
47,1,InteriorLights:Electricity [J] !Hourly
184,1,InteriorEquipment:Electricity [J] !Hourly
1069,1,Pumps:Electricity [J] !Hourly
914,1,Fans:Electricity [J] !Hourly
1039,1,Heating:Electricity [J] !Hourly
334,1,WaterSystems:Electricity [J] !Hourly
1002,1,Gas:Facility [J] !Hourly
1026,1,Heating:Gas [J] !Hourly
208,1,Receptacle:InteriorEquipment:Electricity [J] !Hourly
71,1,ComplianceLtg:InteriorLights:Electricity [J] !Hourly
End of Data Dictionary
1,SACRAMENTO-EXECUTIVE_724830_CZ2010,  38.50,-121.50,  -8.00,   5.00
2,1, 1, 1, 0, 1, 0.00,60.00,Holiday
11,10454954.067260499
47,594224.1902879989
71,594224.1902879989
184,1485560.4757199924
208,1485560.4757199924
334,0.0
914,8265972.788214963
968,109196.61303754468
1002,1242929.299686208
1026,1242929.299686208
1039,0.0
1069,0.0
2,1, 1, 1, 0, 2, 0.00,60.00,Holiday
11,10614012.909645483
47,594224.1902879989
71,594224.1902879989
184,1485560.4757199924
208,1485560.4757199924
334,0.0
914,8404160.522827533
968,130067.72080996048
1002,889989.5066281057
1026,889989.5066281057
1039,0.0
1069,0.0
2,1, 1, 1, 0, 3, 0.00,60.00,Holiday
11,9752452.35765683
47,594224.1902879989
71,594224.1902879989
184,1485560.4757199924
208,1485560.4757199924
334,0.0
914,7596702.728050796
968,75964.96359804072
1002,1042339.7659469408
1026,1042339.7659469408
1039,0.0
1069,0.0
2,1, 1, 1, 0, 4, 0.00,60.00,Holiday
11,10456745.535505917
47,594224.1902879989
71,594224.1902879989
184,1485560.4757199924
208,1485560.4757199924
334,943510.7042217999
914,7324635.511537228
968,108814.65373889815
1002,915612.4285463239
1026,915612.4285463239
1039,0.0
1069,0.0
2,1, 1, 1, 0, 5, 0.00,60.00,Holiday
11,11145608.36442627
47,594224.1902879989
71,594224.1902879989
184,1485560.4757199924
208,1485560.4757199924
334,0.0
914,8997137.687121787
968,68686.0112964928
1002,1281507.3394586747
1026,1281507.3394586747
1039,0.0
1069,0.0
2,1, 1, 1, 0, 6, 0.00,60.00,Holiday
11,15332434.306166256
47,594224.1902879989
71,594224.1902879989
184,1485560.4757199924
208,1485560.4757199924
334,0.0
914,13209323.456959358
968,43326.1831989065
1002,6615555.449150911
1026,6615555.449150911
1039,0.0
1069,0.0
2,1, 1, 1, 0, 7, 0.00,60.00,Holiday
11,15289108.12296735
47,594224.1902879989
71,594224.1902879989
184,1485560.4757199924
208,1485560.4757199924
334,0.0
914,13209323.456959358
968,0.0
1002,6342940.286935879
1026,6342940.286935879
1039,0.0
1069,0.0
2,1, 1, 1, 0, 8, 0.00,60.00,Holiday
11,16232591.76242931
47,594224.1902879989
71,594224.1902879989
184,1485560.4757199924
208,1485560.4757199924
334,943483.6394619614
914,13209323.456959358
968,0.0
1002,7251317.738048242
1026,7251317.738048242
1039,0.0
1069,0.0
2,1, 1, 1, 0, 9, 0.00,60.00,Holiday
11,15289108.12296735
47,594224.1902879989
71,594224.1902879989
184,1485560.4757199924
208,1485560.4757199924
334,0.0
914,13209323.456959358
968,0.0
1002,7263571.79951103
1026,7263571.79951103
1039,0.0
1069,0.0
2,1, 1, 1, 0,10, 0.00,60.00,Holiday
11,15289108.12296735
47,594224.1902879989
71,594224.1902879989
184,1485560.4757199924
208,1485560.4757199924
334,0.0
914,13209323.456959358
968,0.0
1002,7537556.276286665
1026,7537556.276286665
1039,0.0
1069,0.0
2,1, 1, 1, 0,11, 0.00,60.00,Holiday
11,15289108.12296735
47,594224.1902879989
71,594224.1902879989
184,1485560.4757199924
208,1485560.4757199924
334,0.0
914,13209323.456959358
968,0.0
1002,7238174.649071015
1026,7238174.649071015
1039,0.0
1069,0.0
2,1, 1, 1, 0,12, 0.00,60.00,Holiday
11,16234770.335990007
47,594224.1902879989
71,594224.1902879989
184,1485560.4757199924
208,1485560.4757199924
334,945662.2130226576
914,13209323.456959358
968,0.0
1002,6840684.274563057
1026,6840684.274563057
1039,0.0
1069,0.0
2,1, 1, 1, 0,13, 0.00,60.00,Holiday
11,15289108.12296735
47,594224.1902879989
71,594224.1902879989
184,1485560.4757199924
208,1485560.4757199924
334,0.0
914,13209323.456959358
968,0.0
1002,6359692.789378741
1026,6359692.789378741
1039,0.0
1069,0.0
2,1, 1, 1, 0,14, 0.00,60.00,Holiday
11,15289108.12296735
47,594224.1902879989
71,594224.1902879989
184,1485560.4757199924
208,1485560.4757199924
334,0.0
914,13209323.456959358
968,0.0
1002,3658515.4321111619
1026,3658515.4321111619
1039,0.0
1069,0.0
2,1, 1, 1, 0,15, 0.00,60.00,Holiday
11,16234779.934908988
47,594224.1902879989
71,594224.1902879989
184,1485560.4757199924
208,1485560.4757199924
334,945671.8119416398
914,13209323.456959358
968,0.0
1002,2427867.48868611
1026,2427867.48868611
1039,0.0
1069,0.0
2,1, 1, 1, 0,16, 0.00,60.00,Holiday
11,15289108.12296735
47,594224.1902879989
71,594224.1902879989
184,1485560.4757199924
208,1485560.4757199924
334,0.0
914,13209323.456959358
968,0.0
1002,2280378.549415015
1026,2280378.549415015
1039,0.0
1069,0.0
2,1, 1, 1, 0,17, 0.00,60.00,Holiday
11,15289108.12296735
47,594224.1902879989
71,594224.1902879989
184,1485560.4757199924
208,1485560.4757199924
334,0.0
914,13209323.456959358
968,0.0
1002,2164028.2041388989
1026,2164028.2041388989
1039,0.0
1069,0.0
2,1, 1, 1, 0,18, 0.00,60.00,Holiday
11,16232588.931645804
47,594224.1902879989
71,594224.1902879989
184,1485560.4757199924
208,1485560.4757199924
334,943480.8086784543
914,13209323.456959358
968,0.0
1002,1963068.363632782
1026,1963068.363632782
1039,0.0
1069,0.0
2,1, 1, 1, 0,19, 0.00,60.00,Holiday
11,9567752.543075839
47,594224.1902879989
71,594224.1902879989
184,1485560.4757199924
208,1485560.4757199924
334,0.0
914,7359024.362477407
968,128943.51459044212
1002,1196263.9271959908
1026,1196263.9271959908
1039,0.0
1069,0.0
2,1, 1, 1, 0,20, 0.00,60.00,Holiday
11,9602389.61267767
47,594224.1902879989
71,594224.1902879989
184,1485560.4757199924
208,1485560.4757199924
334,0.0
914,7413980.514882684
968,108624.43178699371
1002,1654100.3176697195
1026,1654100.3176697195
1039,0.0
1069,0.0
2,1, 1, 1, 0,21, 0.00,60.00,Holiday
11,8858929.574263026
47,594224.1902879989
71,594224.1902879989
184,1485560.4757199924
208,1485560.4757199924
334,0.0
914,6689754.302313239
968,89390.60594179345
1002,1880799.1937272717
1026,1880799.1937272717
1039,0.0
1069,0.0
2,1, 1, 1, 0,22, 0.00,60.00,Holiday
11,10045368.987486572
47,594224.1902879989
71,594224.1902879989
184,1485560.4757199924
208,1485560.4757199924
334,946735.693029618
914,6927432.667886631
968,91415.96056233107
1002,2347545.4718788566
1026,2347545.4718788566
1039,0.0
1069,0.0
2,1, 1, 1, 0,23, 0.00,60.00,Holiday
11,9103732.046664754
47,594224.1902879989
71,594224.1902879989
184,1485560.4757199924
208,1485560.4757199924
334,0.0
914,6927432.667886631
968,96514.71277013091
1002,2728815.6390205456
1026,2728815.6390205456
1039,0.0
1069,0.0
2,1, 1, 1, 0,24, 0.00,60.00,Holiday
11,11013905.964546744
47,594224.1902879989
71,594224.1902879989
184,1485560.4757199924
208,1485560.4757199924
334,0.0
914,8814415.473953672
968,119705.82458508187
1002,1519169.4919909426
1026,1519169.4919909426
1039,0.0
1069,0.0
2,2, 1, 2, 0, 1, 0.00,60.00,Friday
11,10452406.398616394
47,594224.1902879989
71,594224.1902879989
184,1485560.4757199924
208,1485560.4757199924
334,0.0
914,8265972.788214963
968,106648.94439343954
1002,1550400.3493043399
1026,1550400.3493043399
1039,0.0
1069,0.0
2,2, 1, 2, 0, 2, 0.00,60.00,Friday
11,11856755.875763759
47,594224.1902879989
71,594224.1902879989
184,1485560.4757199924
208,1485560.4757199924
334,944588.3565109987
914,8676227.739341103
968,156155.11390366677
1002,1769481.4764554653
1026,1769481.4764554653
1039,0.0
1069,0.0
2,2, 1, 2, 0, 3, 0.00,60.00,Friday
11,11328218.443507042
47,594224.1902879989
71,594224.1902879989
184,1485560.4757199924
208,1485560.4757199924
334,0.0
914,9086482.69046724
968,161951.0870318088
1002,2241976.4524882847
1026,2241976.4524882847
1039,0.0
1069,0.0
2,2, 1, 2, 0, 4, 0.00,60.00,Friday
11,10919778.930714585
47,594224.1902879989
71,594224.1902879989
184,1485560.4757199924
208,1485560.4757199924
334,0.0
914,8676227.739341103
968,163766.5253654922
1002,2174749.684375332
1026,2174749.684375332
1039,0.0
1069,0.0
2,2, 1, 2, 0, 5, 0.00,60.00,Friday
11,12279228.301674817
47,594224.1902879989
71,594224.1902879989
184,1485560.4757199924
208,1485560.4757199924
334,944598.9471058275
914,9086482.69046724
968,168361.99809375764
1002,2431171.80769495
1026,2431171.80769495
1039,0.0
1069,0.0
2,2, 1, 2, 0, 6, 0.00,60.00,Friday
11,17368892.788975344
47,1188448.3805759978
71,1188448.3805759978
184,2971120.9514399848
208,2971120.9514399848
334,0.0
914,13209323.45695936
968,0.0
1002,134627153.32867015
1026,134627153.32867015
1039,0.0
1069,0.0
2,2, 1, 2, 0, 7, 0.00,60.00,Friday
11,17368892.788975344
47,1188448.3805759978
71,1188448.3805759978
184,2971120.9514399848
208,2971120.9514399848
334,0.0
914,13209323.456959358
968,0.0
1002,117325812.98687658
1026,117325812.98687658
1039,0.0
1069,0.0
2,2, 1, 2, 0, 8, 0.00,60.00,Friday
11,26647909.482644276
47,3565345.141727993
71,3565345.141727993
184,8913362.854319955
208,8913362.854319955
334,959878.0296369732
914,13209323.456959358
968,0.0
1002,94126490.59056354
1026,94126490.59056354
1039,0.0
1069,0.0
2,2, 1, 2, 0, 9, 0.00,60.00,Friday
11,49630113.48714546
47,7724914.473743984
71,7724914.473743984
184,26740088.562959859
208,26740088.562959859
334,1955786.99348226
914,13209323.456959358
968,0.0
1002,49484718.51858234
1026,49484718.51858234
1039,0.0
1069,0.0
2,2, 1, 2, 0,10, 0.00,60.00,Friday
11,48655783.57257537
47,7724914.473743984
71,7724914.473743984
184,26740088.562959859
208,26740088.562959859
334,981457.0789121719
914,13209323.456959358
968,0.0
1002,41529249.53385314
1026,41529249.53385314
1039,0.0
1069,0.0
2,2, 1, 2, 0,11, 0.00,60.00,Friday
11,49639563.34306629
47,7724914.473743984
71,7724914.473743984
184,26740088.562959859
208,26740088.562959859
334,1965236.8494030883
914,13209323.456959358
968,0.0
1002,35443380.34459824
1026,35443380.34459824
1039,0.0
1069,0.0
2,2, 1, 2, 0,12, 0.00,60.00,Friday
11,48666504.83199456
47,7724914.473743984
71,7724914.473743984
184,26740088.562959859
208,26740088.562959859
334,992178.3383313677
914,13209323.456959358
968,0.0
1002,30280856.64152151
1026,30280856.64152151
1039,0.0
1069,0.0
2,2, 1, 2, 0,13, 0.00,60.00,Friday
11,49712869.729875069
47,7724914.473743984
71,7724914.473743984
184,26740088.562959859
208,26740088.562959859
334,2038543.2362118636
914,13209323.456959358
968,0.0
1002,29615429.347204955
1026,29615429.347204955
1039,0.0
1069,0.0
2,2, 1, 2, 0,14, 0.00,60.00,Friday
11,49967063.9671132
47,7724914.473743984
71,7724914.473743984
184,26740088.562959859
208,26740088.562959859
334,2292737.4734499987
914,13209323.456959358
968,0.0
1002,16958091.217196805
1026,16958091.217196805
1039,0.0
1069,0.0
2,2, 1, 2, 0,15, 0.00,60.00,Friday
11,49313201.50315324
47,7724914.473743984
71,7724914.473743984
184,26740088.562959859
208,26740088.562959859
334,1638875.0094900402
914,13209323.456959358
968,0.0
1002,9683224.479336685
1026,9683224.479336685
1039,0.0
1069,0.0
2,2, 1, 2, 0,16, 0.00,60.00,Friday
11,48650067.78588394
47,7724914.473743984
71,7724914.473743984
184,26740088.562959859
208,26740088.562959859
334,975741.292220743
914,13209323.456959358
968,0.0
1002,5024247.642421296
1026,5024247.642421296
1039,0.0
1069,0.0
2,2, 1, 2, 0,17, 0.00,60.00,Friday
11,49651232.21364195
47,7724914.473743984
71,7724914.473743984
184,26740088.562959859
208,26740088.562959859
334,1976905.719978752
914,13209323.456959358
968,0.0
1002,5715688.524704509
1026,5715688.524704509
1039,0.0
1069,0.0
2,2, 1, 2, 0,18, 0.00,60.00,Friday
11,33192189.66755479
47,4159569.3320159919
71,4159569.3320159919
184,14855604.757199923
208,14855604.757199923
334,967692.1213795137
914,13209323.456959358
968,0.0
1002,33898197.27867775
1026,33898197.27867775
1039,0.0
1069,0.0
2,2, 1, 2, 0,19, 0.00,60.00,Friday
11,26650066.595938304
47,3565345.141727993
71,3565345.141727993
184,8913362.854319955
208,8913362.854319955
334,962035.1429309987
914,13209323.456959358
968,0.0
1002,48432099.27069299
1026,48432099.27069299
1039,0.0
1069,0.0
2,2, 1, 2, 0,20, 0.00,60.00,Friday
11,25688031.453007305
47,3565345.141727993
71,3565345.141727993
184,8913362.854319955
208,8913362.854319955
334,0.0
914,13209323.456959358
968,0.0
1002,52332512.75993979
1026,52332512.75993979
1039,0.0
1069,0.0
2,2, 1, 2, 0,21, 0.00,60.00,Friday
11,22486115.869162557
47,2376896.7611519957
71,2376896.7611519957
184,5942241.902879969
208,5942241.902879969
334,957653.7481712364
914,13209323.456959358
968,0.0
1002,63290631.57602646
1026,63290631.57602646
1039,0.0
1069,0.0
2,2, 1, 2, 0,22, 0.00,60.00,Friday
11,22476263.308971034
47,2376896.7611519957
71,2376896.7611519957
184,5942241.902879969
208,5942241.902879969
334,947801.1879797148
914,13209323.456959358
968,0.0
1002,66153417.49325598
1026,66153417.49325598
1039,0.0
1069,0.0
2,2, 1, 2, 0,23, 0.00,60.00,Friday
11,17368892.788975344
47,1188448.3805759978
71,1188448.3805759978
184,2971120.9514399848
208,2971120.9514399848
334,0.0
914,13209323.456959358
968,0.0
1002,74757015.8990014
1026,74757015.8990014
1039,0.0
1069,0.0
2,2, 1, 2, 0,24, 0.00,60.00,Friday
11,15289108.12296735
47,594224.1902879989
71,594224.1902879989
184,1485560.4757199924
208,1485560.4757199924
334,0.0
914,13209323.456959358
968,0.0
1002,81882510.61228663
1026,81882510.61228663
1039,0.0
1069,0.0
2,3, 1, 3, 0, 1, 0.00,60.00,Saturday
11,2079784.6660079912
47,594224.1902879989
71,594224.1902879989
184,1485560.4757199924
208,1485560.4757199924
334,0.0
914,0.0
968,0.0
1002,0.0
1026,0.0
1039,0.0
1069,0.0
2,3, 1, 3, 0, 2, 0.00,60.00,Saturday
11,3024368.516817379
47,594224.1902879989
71,594224.1902879989
184,1485560.4757199924
208,1485560.4757199924
334,944583.8508093875
914,0.0
968,0.0
1002,0.0
1026,0.0
1039,0.0
1069,0.0
2,3, 1, 3, 0, 3, 0.00,60.00,Saturday
11,2079784.6660079912
47,594224.1902879989
71,594224.1902879989
184,1485560.4757199924
208,1485560.4757199924
334,0.0
914,0.0
968,0.0
1002,0.0
1026,0.0
1039,0.0
1069,0.0
2,3, 1, 3, 0, 4, 0.00,60.00,Saturday
11,2079784.6660079912
47,594224.1902879989
71,594224.1902879989
184,1485560.4757199924
208,1485560.4757199924
334,0.0
914,0.0
968,0.0
1002,0.0
1026,0.0
1039,0.0
1069,0.0
2,3, 1, 3, 0, 5, 0.00,60.00,Saturday
11,3024379.126307684
47,594224.1902879989
71,594224.1902879989
184,1485560.4757199924
208,1485560.4757199924
334,944594.4602996925
914,0.0
968,0.0
1002,0.0
1026,0.0
1039,0.0
1069,0.0
2,3, 1, 3, 0, 6, 0.00,60.00,Saturday
11,15289108.12296735
47,594224.1902879989
71,594224.1902879989
184,1485560.4757199924
208,1485560.4757199924
334,0.0
914,13209323.456959358
968,0.0
1002,132163337.13769779
1026,132163337.13769779
1039,0.0
1069,0.0
2,3, 1, 3, 0, 7, 0.00,60.00,Saturday
11,17368892.788975344
47,1188448.3805759978
71,1188448.3805759978
184,2971120.9514399848
208,2971120.9514399848
334,0.0
914,13209323.456959358
968,0.0
1002,109876644.94079946
1026,109876644.94079946
1039,0.0
1069,0.0
2,3, 1, 3, 0, 8, 0.00,60.00,Saturday
11,18319980.374471107
47,1188448.3805759978
71,1188448.3805759978
184,2971120.9514399848
208,2971120.9514399848
334,951087.5854957634
914,13209323.456959358
968,0.0
1002,103863499.08741927
1026,103863499.08741927
1039,0.0
1069,0.0
2,3, 1, 3, 0, 9, 0.00,60.00,Saturday
11,26158786.30942522
47,3565345.141727993
71,3565345.141727993
184,8913362.854319955
208,8913362.854319955
334,470754.8564179205
914,13209323.456959358
968,0.0
1002,81073508.60086233
1026,81073508.60086233
1039,0.0
1069,0.0
2,3, 1, 3, 0,10, 0.00,60.00,Saturday
11,26175951.126743989
47,3565345.141727993
71,3565345.141727993
184,8913362.854319955
208,8913362.854319955
334,487919.67373668387
914,13209323.456959358
968,0.0
1002,63966244.28955425
1026,63966244.28955425
1039,0.0
1069,0.0
2,3, 1, 3, 0,11, 0.00,60.00,Saturday
11,26647890.968153769
47,3565345.141727993
71,3565345.141727993
184,8913362.854319955
208,8913362.854319955
334,959859.5151464605
914,13209323.456959358
968,0.0
1002,46374261.22874673
1026,46374261.22874673
1039,0.0
1069,0.0
2,3, 1, 3, 0,12, 0.00,60.00,Saturday
11,26652401.806612828
47,3565345.141727993
71,3565345.141727993
184,8913362.854319955
208,8913362.854319955
334,964370.353605523
914,13209323.456959358
968,0.0
1002,32076640.189882786
1026,32076640.189882786
1039,0.0
1069,0.0
2,3, 1, 3, 0,13, 0.00,60.00,Saturday
11,20409623.812453666
47,1782672.5708639965
71,1782672.5708639965
184,4456681.427159977
208,4456681.427159977
334,960946.3574703357
914,13209323.456959358
968,0.0
1002,33264942.244816156
1026,33264942.244816156
1039,0.0
1069,0.0
2,3, 1, 3, 0,14, 0.00,60.00,Saturday
11,20408534.664041204
47,1782672.5708639965
71,1782672.5708639965
184,4456681.427159977
208,4456681.427159977
334,959857.2090578727
914,13209323.456959358
968,0.0
1002,27757106.46985411
1026,27757106.46985411
1039,0.0
1069,0.0
2,3, 1, 3, 0,15, 0.00,60.00,Saturday
11,19448677.45498333
47,1782672.5708639965
71,1782672.5708639965
184,4456681.427159977
208,4456681.427159977
334,0.0
914,13209323.456959358
968,0.0
1002,25052645.350606536
1026,25052645.350606536
1039,0.0
1069,0.0
2,3, 1, 3, 0,16, 0.00,60.00,Saturday
11,20400846.247270377
47,1782672.5708639965
71,1782672.5708639965
184,4456681.427159977
208,4456681.427159977
334,952168.7922870476
914,13209323.456959358
968,0.0
1002,25353597.70356857
1026,25353597.70356857
1039,0.0
1069,0.0
2,3, 1, 3, 0,17, 0.00,60.00,Saturday
11,20403057.209547759
47,1782672.5708639965
71,1782672.5708639965
184,4456681.427159977
208,4456681.427159977
334,954379.7545644306
914,13209323.456959358
968,0.0
1002,29613427.389615247
1026,29613427.389615247
1039,0.0
1069,0.0
2,3, 1, 3, 0,18, 0.00,60.00,Saturday
11,15289108.12296735
47,594224.1902879989
71,594224.1902879989
184,1485560.4757199924
208,1485560.4757199924
334,0.0
914,13209323.456959358
968,0.0
1002,42833215.03297466
1026,42833215.03297466
1039,0.0
1069,0.0
2,3, 1, 3, 0,19, 0.00,60.00,Saturday
11,15289108.12296735
47,594224.1902879989
71,594224.1902879989
184,1485560.4757199924
208,1485560.4757199924
334,0.0
914,13209323.456959358
968,0.0
1002,49630209.35595874
1026,49630209.35595874
1039,0.0
1069,0.0
2,3, 1, 3, 0,20, 0.00,60.00,Saturday
11,3026546.338132345
47,594224.1902879989
71,594224.1902879989
184,1485560.4757199924
208,1485560.4757199924
334,946761.6721243536
914,0.0
968,0.0
1002,0.0
1026,0.0
1039,0.0
1069,0.0
2,3, 1, 3, 0,21, 0.00,60.00,Saturday
11,2079784.6660079912
47,594224.1902879989
71,594224.1902879989
184,1485560.4757199924
208,1485560.4757199924
334,0.0
914,0.0
968,0.0
1002,0.0
1026,0.0
1039,0.0
1069,0.0
2,3, 1, 3, 0,22, 0.00,60.00,Saturday
11,2697276.9113778679
47,594224.1902879989
71,594224.1902879989
184,1485560.4757199924
208,1485560.4757199924
334,617492.2453698764
914,0.0
968,0.0
1002,0.0
1026,0.0
1039,0.0
1069,0.0
2,3, 1, 3, 0,23, 0.00,60.00,Saturday
11,2409463.535813527
47,594224.1902879989
71,594224.1902879989
184,1485560.4757199924
208,1485560.4757199924
334,329678.86980553626
914,0.0
968,0.0
1002,0.0
1026,0.0
1039,0.0
1069,0.0
2,3, 1, 3, 0,24, 0.00,60.00,Saturday
11,2079784.6660079912
47,594224.1902879989
71,594224.1902879989
184,1485560.4757199924
208,1485560.4757199924
334,0.0
914,0.0
968,0.0
1002,0.0
1026,0.0
1039,0.0
1069,0.0
2,4, 1, 4, 0, 1, 0.00,60.00,Sunday
11,2079784.6660079912
47,594224.1902879989
71,594224.1902879989
184,1485560.4757199924
208,1485560.4757199924
334,0.0
914,0.0
968,0.0
1002,0.0
1026,0.0
1039,0.0
1069,0.0
2,4, 1, 4, 0, 2, 0.00,60.00,Sunday
11,3023278.462039846
47,594224.1902879989
71,594224.1902879989
184,1485560.4757199924
208,1485560.4757199924
334,943493.7960318546
914,0.0
968,0.0
1002,0.0
1026,0.0
1039,0.0
1069,0.0
2,4, 1, 4, 0, 3, 0.00,60.00,Sunday
11,2079784.6660079912
47,594224.1902879989
71,594224.1902879989
184,1485560.4757199924
208,1485560.4757199924
334,0.0
914,0.0
968,0.0
1002,0.0
1026,0.0
1039,0.0
1069,0.0
2,4, 1, 4, 0, 4, 0.00,60.00,Sunday
11,2079784.6660079912
47,594224.1902879989
71,594224.1902879989
184,1485560.4757199924
208,1485560.4757199924
334,0.0
914,0.0
968,0.0
1002,0.0
1026,0.0
1039,0.0
1069,0.0
2,4, 1, 4, 0, 5, 0.00,60.00,Sunday
11,2079784.6660079912
47,594224.1902879989
71,594224.1902879989
184,1485560.4757199924
208,1485560.4757199924
334,0.0
914,0.0
968,0.0
1002,0.0
1026,0.0
1039,0.0
1069,0.0
2,4, 1, 4, 0, 6, 0.00,60.00,Sunday
11,16263599.894139743
47,594224.1902879989
71,594224.1902879989
184,1485560.4757199924
208,1485560.4757199924
334,946760.3629209725
914,13209323.456959358
968,27731.408251420304
1002,15050995.032785388
1026,15050995.032785388
1039,0.0
1069,0.0
2,4, 1, 4, 0, 7, 0.00,60.00,Sunday
11,15289108.12296735
47,594224.1902879989
71,594224.1902879989
184,1485560.4757199924
208,1485560.4757199924
334,0.0
914,13209323.456959358
968,0.0
1002,20991550.20971736
1026,20991550.20971736
1039,0.0
1069,0.0
2,4, 1, 4, 0, 8, 0.00,60.00,Sunday
11,15289108.12296735
47,594224.1902879989
71,594224.1902879989
184,1485560.4757199924
208,1485560.4757199924
334,0.0
914,13209323.456959358
968,0.0
1002,24846102.29879916
1026,24846102.29879916
1039,0.0
1069,0.0
2,4, 1, 4, 0, 9, 0.00,60.00,Sunday
11,15289108.12296735
47,594224.1902879989
71,594224.1902879989
184,1485560.4757199924
208,1485560.4757199924
334,0.0
914,13209323.456959358
968,0.0
1002,22271982.116273717
1026,22271982.116273717
1039,0.0
1069,0.0
2,4, 1, 4, 0,10, 0.00,60.00,Sunday
11,16232603.112356449
47,594224.1902879989
71,594224.1902879989
184,1485560.4757199924
208,1485560.4757199924
334,943494.9893891
914,13209323.456959358
968,0.0
1002,12789712.165190466
1026,12789712.165190466
1039,0.0
1069,0.0
2,4, 1, 4, 0,11, 0.00,60.00,Sunday
11,15331306.808220298
47,594224.1902879989
71,594224.1902879989
184,1485560.4757199924
208,1485560.4757199924
334,0.0
914,13209323.456959358
968,42198.68525294639
1002,4762727.655518313
1026,4762727.655518313
1039,0.0
1069,0.0
2,4, 1, 4, 0,12, 0.00,60.00,Sunday
11,15341582.845187165
47,594224.1902879989
71,594224.1902879989
184,1485560.4757199924
208,1485560.4757199924
334,0.0
914,13209323.456959358
968,52474.72221981361
1002,1241624.5776129608
1026,1241624.5776129608
1039,0.0
1069,0.0
2,4, 1, 4, 0,13, 0.00,60.00,Sunday
11,16276885.699584058
47,594224.1902879989
71,594224.1902879989
184,1485560.4757199924
208,1485560.4757199924
334,945570.8046364978
914,13209323.456959358
968,42206.771980210106
1002,0.0
1026,0.0
1039,0.0
1069,0.0
2,4, 1, 4, 0,14, 0.00,60.00,Sunday
11,15400670.402382177
47,594224.1902879989
71,594224.1902879989
184,1485560.4757199924
208,1485560.4757199924
334,0.0
914,13209323.456959358
968,111562.2794148269
1002,0.0
1026,0.0
1039,0.0
1069,0.0
2,4, 1, 4, 0,15, 0.00,60.00,Sunday
11,15359342.177471638
47,594224.1902879989
71,594224.1902879989
184,1485560.4757199924
208,1485560.4757199924
334,0.0
914,13209323.456959358
968,70234.0545042892
1002,0.0
1026,0.0
1039,0.0
1069,0.0
2,4, 1, 4, 0,16, 0.00,60.00,Sunday
11,16254859.30042386
47,594224.1902879989
71,594224.1902879989
184,1485560.4757199924
208,1485560.4757199924
334,943487.1149180175
914,13209323.456959358
968,22264.06253849437
1002,0.0
1026,0.0
1039,0.0
1069,0.0
2,4, 1, 4, 0,17, 0.00,60.00,Sunday
11,15289108.12296735
47,594224.1902879989
71,594224.1902879989
184,1485560.4757199924
208,1485560.4757199924
334,0.0
914,13209323.456959358
968,0.0
1002,355635.4561997285
1026,355635.4561997285
1039,0.0
1069,0.0
2,4, 1, 4, 0,18, 0.00,60.00,Sunday
11,15289108.12296735
47,594224.1902879989
71,594224.1902879989
184,1485560.4757199924
208,1485560.4757199924
334,0.0
914,13209323.456959358
968,0.0
1002,882620.9886574495
1026,882620.9886574495
1039,0.0
1069,0.0
2,4, 1, 4, 0,19, 0.00,60.00,Sunday
11,2079784.6660079912
47,594224.1902879989
71,594224.1902879989
184,1485560.4757199924
208,1485560.4757199924
334,0.0
914,0.0
968,0.0
1002,0.0
1026,0.0
1039,0.0
1069,0.0
2,4, 1, 4, 0,20, 0.00,60.00,Sunday
11,3023278.5853759257
47,594224.1902879989
71,594224.1902879989
184,1485560.4757199924
208,1485560.4757199924
334,943493.919367934
914,0.0
968,0.0
1002,0.0
1026,0.0
1039,0.0
1069,0.0
2,4, 1, 4, 0,21, 0.00,60.00,Sunday
11,2079784.6660079912
47,594224.1902879989
71,594224.1902879989
184,1485560.4757199924
208,1485560.4757199924
334,0.0
914,0.0
968,0.0
1002,0.0
1026,0.0
1039,0.0
1069,0.0
2,4, 1, 4, 0,22, 0.00,60.00,Sunday
11,2764479.9574051906
47,594224.1902879989
71,594224.1902879989
184,1485560.4757199924
208,1485560.4757199924
334,0.0
914,667924.1105124487
968,16771.18088475031
1002,0.0
1026,0.0
1039,0.0
1069,0.0
2,4, 1, 4, 0,23, 0.00,60.00,Sunday
11,4748742.712372633
47,594224.1902879989
71,594224.1902879989
184,1485560.4757199924
208,1485560.4757199924
334,943515.0677486794
914,1687415.274686368
968,38027.70392959376
1002,0.0
1026,0.0
1039,0.0
1069,0.0
2,4, 1, 4, 0,24, 0.00,60.00,Sunday
11,5244654.989639919
47,594224.1902879989
71,594224.1902879989
184,1485560.4757199924
208,1485560.4757199924
334,0.0
914,3102763.332859167
968,62106.99077276081
1002,71465.87454711188
1026,71465.87454711188
1039,0.0
1069,0.0
2,5, 1, 5, 0, 1, 0.00,60.00,Monday
11,3784063.7960477827
47,594224.1902879989
71,594224.1902879989
184,1485560.4757199924
208,1485560.4757199924
334,0.0
914,1687415.274686368
968,16863.85535342365
1002,0.0
1026,0.0
1039,0.0
1069,0.0
2,5, 1, 5, 0, 2, 0.00,60.00,Monday
11,4356913.912869273
47,594224.1902879989
71,594224.1902879989
184,1485560.4757199924
208,1485560.4757199924
334,0.0
914,2259055.6955159825
968,18073.551345298616
1002,221412.52067628859
1026,221412.52067628859
1039,0.0
1069,0.0
2,5, 1, 5, 0, 3, 0.00,60.00,Monday
11,6715366.419578528
47,594224.1902879989
71,594224.1902879989
184,1485560.4757199924
208,1485560.4757199924
334,944599.2251464715
914,3646897.7658863055
968,44084.76253775983
1002,190510.33986998525
1026,190510.33986998525
1039,0.0
1069,0.0
2,5, 1, 5, 0, 4, 0.00,60.00,Monday
11,5742183.017208587
47,594224.1902879989
71,594224.1902879989
184,1485560.4757199924
208,1485560.4757199924
334,0.0
914,3625101.8036467914
968,37296.54755380416
1002,542235.6271554513
1026,542235.6271554513
1039,0.0
1069,0.0
2,5, 1, 5, 0, 5, 0.00,60.00,Monday
11,6281157.800098111
47,594224.1902879989
71,594224.1902879989
184,1485560.4757199924
208,1485560.4757199924
334,0.0
914,4169236.2366739299
968,32136.897416190895
1002,717587.9553819711
1026,717587.9553819711
1039,0.0
1069,0.0
2,5, 1, 5, 0, 6, 0.00,60.00,Monday
11,18316720.76879695
47,1188448.3805759978
71,1188448.3805759978
184,2971120.9514399848
208,2971120.9514399848
334,947827.9798216105
914,13209323.45695936
968,0.0
1002,125708901.07286275
1026,125708901.07286275
1039,0.0
1069,0.0
2,5, 1, 5, 0, 7, 0.00,60.00,Monday
11,17368892.788975344
47,1188448.3805759978
71,1188448.3805759978
184,2971120.9514399848
208,2971120.9514399848
334,0.0
914,13209323.456959358
968,0.0
1002,109973523.47367394
1026,109973523.47367394
1039,0.0
1069,0.0
2,5, 1, 5, 0, 8, 0.00,60.00,Monday
11,26647898.194957638
47,3565345.141727993
71,3565345.141727993
184,8913362.854319955
208,8913362.854319955
334,959866.7419503353
914,13209323.456959358
968,0.0
1002,92562510.24618057
1026,92562510.24618057
1039,0.0
1069,0.0
2,5, 1, 5, 0, 9, 0.00,60.00,Monday
11,48652402.97887968
47,7724914.473743984
71,7724914.473743984
184,26740088.562959859
208,26740088.562959859
334,978076.485216485
914,13209323.456959358
968,0.0
1002,47668282.30846622
1026,47668282.30846622
1039,0.0
1069,0.0
2,5, 1, 5, 0,10, 0.00,60.00,Monday
11,49637233.73962363
47,7724914.473743984
71,7724914.473743984
184,26740088.562959859
208,26740088.562959859
334,1962907.2459604266
914,13209323.456959358
968,0.0
1002,29974655.8905648
1026,29974655.8905648
1039,0.0
1069,0.0
2,5, 1, 5, 0,11, 0.00,60.00,Monday
11,48676952.53331165
47,7724914.473743984
71,7724914.473743984
184,26740088.562959859
208,26740088.562959859
334,982692.4646600598
914,13209323.456959358
968,19933.574988390796
1002,15735465.003613584
1026,15735465.003613584
1039,0.0
1069,0.0
2,5, 1, 5, 0,12, 0.00,60.00,Monday
11,49703885.8536605
47,7724914.473743984
71,7724914.473743984
184,26740088.562959859
208,26740088.562959859
334,1983976.6472925349
914,13209323.456959358
968,45582.71270476491
1002,6900429.993327865
1026,6900429.993327865
1039,0.0
1069,0.0
2,5, 1, 5, 0,13, 0.00,60.00,Monday
11,49719704.93135468
47,7724914.473743984
71,7724914.473743984
184,26740088.562959859
208,26740088.562959859
334,2007983.715827639
914,13209323.456959358
968,37394.72186384164
1002,4073429.835143365
1026,4073429.835143365
1039,0.0
1069,0.0
2,5, 1, 5, 0,14, 0.00,60.00,Monday
11,49795208.599419619
47,7724914.473743984
71,7724914.473743984
184,26740088.562959859
208,26740088.562959859
334,2000480.7508904259
914,13209323.456959358
968,120401.35486599355
1002,451296.36665397768
1026,451296.36665397768
1039,0.0
1069,0.0
2,5, 1, 5, 0,15, 0.00,60.00,Monday
11,48732640.24857885
47,7724914.473743984
71,7724914.473743984
184,26740088.562959859
208,26740088.562959859
334,976898.8827765692
914,13209323.456959358
968,81414.87213907537
1002,0.0
1026,0.0
1039,0.0
1069,0.0
2,5, 1, 5, 0,16, 0.00,60.00,Monday
11,49693860.91169246
47,7724914.473743984
71,7724914.473743984
184,26740088.562959859
208,26740088.562959859
334,1951480.2943383468
914,13209323.456959358
968,68054.12369091815
1002,0.0
1026,0.0
1039,0.0
1069,0.0
2,5, 1, 5, 0,17, 0.00,60.00,Monday
11,48672158.6500685
47,7724914.473743984
71,7724914.473743984
184,26740088.562959859
208,26740088.562959859
334,988353.8378152223
914,13209323.456959358
968,9478.318590080791
1002,0.0
1026,0.0
1039,0.0
1069,0.0
2,5, 1, 5, 0,18, 0.00,60.00,Monday
11,33220135.507372615
47,4159569.3320159919
71,4159569.3320159919
184,14855604.757199923
208,14855604.757199923
334,967754.0505129568
914,13209323.456959358
968,27883.910684386068
1002,6532396.793303994
1026,6532396.793303994
1039,0.0
1069,0.0
2,5, 1, 5, 0,19, 0.00,60.00,Monday
11,26650201.842536868
47,3565345.141727993
71,3565345.141727993
184,8913362.854319955
208,8913362.854319955
334,962170.3895295605