Program Version,EnergyPlus, Version 9.0.1-bb7ca4f0da, YMD=2019.12.17 17:41
1,5,Environment Title[],Latitude[deg],Longitude[deg],Time Zone[],Elevation[m]
2,8,Day of Simulation[],Month[],Day of Month[],DST Indicator[1=yes 0=no],Hour[],StartMinute[],EndMinute[],DayType
3,5,Cumulative Day of Simulation[],Month[],Day of Month[],DST Indicator[1=yes 0=no],DayType  ! When Daily Meters Requested
4,2,Cumulative Days of Simulation[],Month[]  ! When Monthly Meters Requested
5,1,Cumulative Days of Simulation[] ! When Run Period Meters Requested
6,1,Calendar Year of Simulation[] ! When Annual Meters Requested
4121,1,Fans:Electricity [J] !Hourly
4230,1,Heating:Gas [J] !Hourly
46,1,InteriorLights:Electricity [J] !Hourly
4243,1,Heating:Electricity [J] !Hourly
992,1,InteriorEquipment:Electricity [J] !Hourly
10,1,Electricity:Facility [J] !Hourly
4480,1,Pumps:Electricity [J] !Hourly
4354,1,Cooling:Electricity [J] !Hourly
2227,1,WaterSystems:Electricity [J] !Hourly
1496,1,Gas:Facility [J] !Hourly
1532,1,InteriorEquipment:Gas [J] !Hourly
2365,1,WaterSystems:Gas [J] !Hourly
1016,1,Receptacle:InteriorEquipment:Electricity [J] !Hourly
1556,1,Receptacle:InteriorEquipment:Gas [J] !Hourly
70,1,ComplianceLtg:InteriorLights:Electricity [J] !Hourly
345,1,NonComplianceLtg:InteriorLights:Electricity [J] !Hourly
4133,1,General:Fans:Electricity [J] !Hourly
4170,1,ProcessMotors:Fans:Electricity [J] !Hourly
End of Data Dictionary
1,RIVERSIDE-MUNI ANN CLG 0.4% CONDNS DB=>MCWB,  33.95,-117.44,  -8.00, 253.00
2,1, 8,21, 0, 1, 0.00,60.00,SummerDesignDay
10,701988943.4331775
46,249737579.99999974
70,96701579.99999997
345,153035999.9999997
992,231449399.99999977
1016,231449399.99999977
1496,63675134.18422333
1532,57764642.17263899
1556,57764642.17263899
2227,17471399.65176998
2365,5910492.01158434
4121,242.23347942255084
4133,40.27191705998135
4170,146.49394504991595
4230,0.0
4243,0.0
4354,203330321.54792793
4480,0.0
2,1, 8,21, 0, 2, 0.00,60.00,SummerDesignDay
10,690992797.0584037
46,249737579.99999974
70,96701579.99999997
345,153035999.9999997
992,231449399.99999977
1016,231449399.99999977
1496,63945668.17296557
1532,57764642.17263899
1556,57764642.17263899
2227,17472086.63618365
2365,6181026.000326579
4121,240.16579139882874
4133,40.28216958806236
4170,146.49394504991595
4230,0.0
4243,0.0
4354,192333490.25642879
4480,0.0
2,1, 8,21, 0, 3, 0.00,60.00,SummerDesignDay
10,683466341.9578754
46,249737579.99999974
70,96701579.99999997
345,153035999.9999997
992,231449399.99999977
1016,231449399.99999977
1496,63779354.93571418
1532,57764642.17263899
1556,57764642.17263899
2227,17471996.45431786
2365,6014712.763075183
4121,238.84872939764757
4133,40.29061243699941
4170,146.49394504991595
4230,0.0
4243,0.0
4354,184807126.654828
4480,0.0
2,1, 8,21, 0, 4, 0.00,60.00,SummerDesignDay
10,676855286.7760415
46,249737579.99999974
70,96701579.99999997
345,153035999.9999997
992,231449399.99999977
1016,231449399.99999977
1496,63841288.808652568
1532,57764642.17263899
1556,57764642.17263899
2227,17471976.037370359
2365,6076646.636013574
4121,237.69605100256795
4133,40.296836818857588
4170,146.49394504991595
4230,0.0
4243,0.0
4354,178196093.04262
4480,0.0
2,1, 8,21, 0, 5, 0.00,60.00,SummerDesignDay
10,671558587.4828851
46,249737579.99999974
70,96701579.99999997
345,153035999.9999997
992,231449399.99999977
1016,231449399.99999977
1496,63883871.43860094
1532,57764642.17263899
1556,57764642.17263899
2227,17472072.96034223
2365,6119229.265961956
4121,236.73738798411956
4133,40.30119358454274
4170,146.49394504991595
4230,0.0
4243,0.0
4354,172899297.78515489
4480,0.0
2,1, 8,21, 0, 6, 0.00,60.00,SummerDesignDay
10,696302045.1362728
46,249737579.99999974
70,96701579.99999997
345,153035999.9999997
992,231449399.99999977
1016,231449399.99999977
1496,63736991.20900232
1532,57764642.17263899
1556,57764642.17263899
2227,17472427.52030359
2365,5972349.036363333
4121,244.65637294889096
4133,46.327042769265428
4170,146.49394504991595
4230,0.0
4243,0.0
4354,197642392.95959638
4480,0.0
2,1, 8,21, 0, 7, 0.00,60.00,SummerDesignDay
10,789774209.3847698
46,249737579.99999974
70,96701579.99999997
345,153035999.9999997
992,231449399.99999977
1016,231449399.99999977
1496,63988615.30004836
1532,57764642.17263899
1556,57764642.17263899
2227,17473227.858256349
2365,6223973.127409364
4121,285.9450848985922
4133,77.10220621136601
4170,146.49394504991597
4230,0.0
4243,0.0
4354,291113715.58142867
4480,0.0
2,1, 8,21, 0, 8, 0.00,60.00,SummerDesignDay
10,808302570.3409892
46,249737579.99999974
70,96701579.99999997
345,153035999.9999997
992,231449399.99999977
1016,231449399.99999977
1496,63675295.11227631
1532,57764642.17263899
1556,57764642.17263899
2227,17472065.992013277
2365,5910652.93963732
4121,279.9187812735741
4133,59.74618848614081
4170,146.49394504991595
4230,0.0
4243,0.0
4354,309643244.4301946
4480,0.0
2,1, 8,21, 0, 9, 0.00,60.00,SummerDesignDay
10,855119669.5199559
46,249737579.99999974
70,96701579.99999997
345,153035999.9999997
992,231449399.99999977
1016,231449399.99999977
1496,64049851.62170317
1532,57764642.17263899
1556,57764642.17263899
2227,17471898.072747094
2365,6285209.449064181
4121,291.62945150900256
4133,57.8810945310545
4170,146.49394504991595
4230,0.0
4243,0.0
4354,356460499.8177572
4480,0.0
2,1, 8,21, 0,10, 0.00,60.00,SummerDesignDay
10,900502216.8215008
46,249737579.99999974
70,96701579.99999997
345,153035999.9999997
992,231449399.99999977
1016,231449399.99999977
1496,63675158.68611084
1532,57764642.17263899
1556,57764642.17263899
2227,17471786.599397139
2365,5910516.51347184
4121,301.67207451368196
4133,58.02611515800771
4170,146.49394504991595
4230,0.0
4243,0.0
4354,401843148.5500292
4480,0.0
2,1, 8,21, 0,11, 0.00,60.00,SummerDesignDay
10,938190588.372813
46,249737579.99999974
70,96701579.99999997
345,153035999.9999997
992,231449399.99999977
1016,231449399.99999977
1496,63977500.05711563
1532,57764642.17263899
1556,57764642.17263899
2227,17471786.145128427
2365,6212857.884476639
4121,307.9456299917025
4133,58.24866549720976
4170,146.49394504991595
4230,0.0
4243,0.0
4354,439531514.2820546
4480,0.0
2,1, 8,21, 0,12, 0.00,60.00,SummerDesignDay
10,968145669.8473698
46,249737579.99999974
70,96701579.99999997
345,153035999.9999997
992,231449399.99999977
1016,231449399.99999977
1496,63747538.6928812
1532,57764642.17263899
1556,57764642.17263899
2227,17472229.333479048
2365,5982896.520242204
4121,312.63281077609738
4133,58.562060573623188
4170,146.49394504991595
4230,0.0
4243,0.0
4354,469486147.88107988
4480,0.0
2,1, 8,21, 0,13, 0.00,60.00,SummerDesignDay
10,993986091.6256319
46,249737579.99999974
70,96701579.99999997
345,153035999.9999997
992,231449399.99999977
1016,231449399.99999977
1496,63873189.741220127
1532,57764642.17263899
1556,57764642.17263899
2227,17471899.435429858
2365,6108547.568581134
4121,317.5084007436725
4133,59.05327423961745
4170,146.49394504991595
4230,0.0
4243,0.0
4354,495326894.68180117
4480,0.0
2,1, 8,21, 0,14, 0.00,60.00,SummerDesignDay
10,1021192619.3772311
46,249737579.99999974
70,96701579.99999997
345,153035999.9999997
992,231449399.99999977
1016,231449399.99999977
1496,63851970.41144297
1532,57764642.17263899
1556,57764642.17263899
2227,17471761.26718378
2365,6087328.238803985
4121,325.14099459108265
4133,60.17068436733314
4170,146.49394504991595
4230,0.0
4243,0.0
4354,522533552.9690529
4480,0.0
2,1, 8,21, 0,15, 0.00,60.00,SummerDesignDay
10,1039823984.0507403
46,249737579.99999974
70,96701579.99999997
345,153035999.9999997
992,231449399.99999977
1016,231449399.99999977
1496,63768678.17603326
1532,57764642.17263899
1556,57764642.17263899
2227,17471692.209943188
2365,6004036.003394268
4121,332.4771615079618
4133,61.58910784836766
4170,146.49394504991595
4230,0.0
4243,0.0
4354,541164979.3636355
4480,0.0
2,1, 8,21, 0,16, 0.00,60.00,SummerDesignDay
10,1035840237.7494445
46,249737579.99999974
70,96701579.99999997
345,153035999.9999997
992,231449399.99999977
1016,231449399.99999977
1496,63956426.51930479
1532,57764642.17263899
1556,57764642.17263899
2227,17563731.4457568
2365,6191784.346665803
4121,333.928823622898
4133,62.11459730209232
4170,146.49394504991595
4230,0.0
4243,0.0
4354,537089192.374864
4480,0.0
2,1, 8,21, 0,17, 0.00,60.00,SummerDesignDay
10,1009837079.7651289
46,249737579.99999974
70,96701579.99999997
345,153035999.9999997
992,231449399.99999977
1016,231449399.99999977
1496,63675588.07675096
1532,57764642.17263899
1556,57764642.17263899
2227,17634698.419148655
2365,5910945.904111965
4121,327.8070015429311
4133,61.580073728041117
4170,146.49394504991595
4230,0.0
4243,0.0
4354,511015073.53897878
4480,0.0
2,1, 8,21, 0,18, 0.00,60.00,SummerDesignDay
10,970095102.1390641
46,249737579.99999974
70,96701579.99999997
345,153035999.9999997
992,231449399.99999977
1016,231449399.99999977
1496,64049571.71636419
1532,57764642.17263899
1556,57764642.17263899
2227,17634591.930357286
2365,6284929.543725198
4121,316.0289833728229
4133,59.590366147122477
4170,146.49394504991595
4230,0.0
4243,0.0
4354,471273214.1797233
4480,0.0
2,1, 8,21, 0,19, 0.00,60.00,SummerDesignDay
10,909277550.5838949
46,249737579.99999974
70,96701579.99999997
345,153035999.9999997
992,231449399.99999977
1016,231449399.99999977
1496,63675335.030644688
1532,57764642.17263899
1556,57764642.17263899
2227,17635008.76526638
2365,5910692.858005691
4121,296.3394358996162
4133,56.813182495494519
4170,146.49394504991595
4230,0.0
4243,0.0
4354,410455265.47919258
4480,0.0
2,1, 8,21, 0,20, 0.00,60.00,SummerDesignDay
10,863396677.3510779
46,249737579.99999974
70,96701579.99999997
345,153035999.9999997
992,231449399.99999977
1016,231449399.99999977
1496,64009483.48890048
1532,57764642.17263899
1556,57764642.17263899
2227,17634371.25846371
2365,6244841.316261494
4121,282.8963216689144
4133,54.70234354378137
4170,146.49394504991595
4230,0.0
4243,0.0
4354,364575043.1962923
4480,0.0
2,1, 8,21, 0,21, 0.00,60.00,SummerDesignDay
10,831193194.0259947
46,249737579.99999974
70,96701579.99999997
345,153035999.9999997
992,231449399.99999977
1016,231449399.99999977
1496,63715638.73780061
1532,57764642.17263899
1556,57764642.17263899
2227,17634843.828651456
2365,5950996.565161623
4121,273.76610467772289
4133,53.2784695709704
4170,146.49394504991595
4230,0.0
4243,0.0
4354,332371096.43123868
4480,0.0
2,1, 8,21, 0,22, 0.00,60.00,SummerDesignDay
10,771475128.0150255
46,249737579.99999974
70,96701579.99999997
345,153035999.9999997
992,231449399.99999977
1016,231449399.99999977
1496,63904973.75864206
1532,57764642.17263899
1556,57764642.17263899
2227,17635319.07166106
2365,6140331.586003078
4121,258.0413305355488
4133,43.63147289650943
4170,146.49394504991595
4230,0.0
4243,0.0
4354,272652570.9020338
4480,0.0
2,1, 8,21, 0,23, 0.00,60.00,SummerDesignDay
10,750304539.6402058
46,249737579.99999974
70,96701579.99999997
345,153035999.9999997
992,231449399.99999977
1016,231449399.99999977
1496,63820634.75305489
1532,57764642.17263899
1556,57764642.17263899
2227,17520224.02292593
2365,6055992.580415904
4121,252.9244194949733
4133,43.38762180881225
4170,146.49394504991595
4230,0.0
4243,0.0
4354,251597082.6928603
4480,0.0
2,1, 8,21, 0,24, 0.00,60.00,SummerDesignDay
10,732022530.0154743
46,249737579.99999974
70,96701579.99999997
345,153035999.9999997
992,231449399.99999977
1016,231449399.99999977
1496,63800086.314571257
1532,57764642.17263899
1556,57764642.17263899
2227,17472127.756220864
2365,6035444.141932262
4121,248.61457120364708
4133,43.18422889042481
4170,146.49394504991595
4230,0.0
4243,0.0
4354,233363173.6446822
4480,0.0
1,RIVERSIDE-MUNI ANN CLG 0.4% CONDNS DP=>MCDB,  33.95,-117.44,  -8.00, 253.00
2,1, 8,21, 0, 1, 0.00,60.00,SummerDesignDay
10,554904655.1062404
46,249737579.99999974
70,96701579.99999997
345,153035999.9999997
992,231449399.99999977
1016,231449399.99999977
1496,63675199.32893055
1532,57764642.17263899
1556,57764642.17263899
2227,17471831.238370044
2365,5910557.156291558
4121,212.5928142544837
4133,40.23652740862101
4170,146.49394504991595
4230,0.0
4243,0.0
4354,56245631.27505613
4480,0.0
2,1, 8,21, 0, 2, 0.00,60.00,SummerDesignDay
10,540103949.7880524
46,249737579.99999974
70,96701579.99999997
345,153035999.9999997
992,231449399.99999977
1016,231449399.99999977
1496,64082109.964930158
1532,57764642.17263899
1556,57764642.17263899
2227,17472087.37864254
2365,6180926.991558487
4121,209.49680955431493
4133,40.24077848654231
4170,146.49394504991595
4230,136540.80073267394
4243,0.0
4354,41444672.91260053
4480,0.0
2,1, 8,21, 0, 3, 0.00,60.00,SummerDesignDay
10,534315714.68154039
46,249737579.99999974
70,96701579.99999997
345,153035999.9999997
992,231449399.99999977
1016,231449399.99999977
1496,71931237.89469466
1532,57764642.17263899
1556,57764642.17263899
2227,17471996.78527656
2365,6014811.8785616629
4121,207.2848944234897
4133,40.243336171647808
4170,146.49394504991595
4230,8151783.843493997
4243,0.0
4354,35656530.611369367
4480,0.0
2,1, 8,21, 0, 4, 0.00,60.00,SummerDesignDay
10,530847174.7147228
46,249737579.99999974
70,96701579.99999997
345,153035999.9999997
992,231449399.99999977
1016,231449399.99999977
1496,84218597.24861095
1532,57764642.17263899
1556,57764642.17263899
2227,17471975.950592299
2365,6076547.477035756
4121,205.38083603685394
4133,40.244923240674079
4170,146.49394504991595
4230,20377407.598936198
4243,0.0
4354,32188013.383294524
4480,0.0
2,1, 8,21, 0, 5, 0.00,60.00,SummerDesignDay
10,527991882.94528207
46,249737579.99999974
70,96701579.99999997
345,153035999.9999997
992,231449399.99999977
1016,231449399.99999977
1496,93537143.50411999
1532,57764642.17263899
1556,57764642.17263899
2227,17472071.206877918
2365,6119328.4652703129
4121,203.80568489494
4133,40.2454525004407
4170,146.49394504991595
4230,29653172.86621069
4243,0.0
4354,29332627.932719165
4480,0.0
2,1, 8,21, 0, 6, 0.00,60.00,SummerDesignDay
10,545603749.5854023
46,249737579.99999974
70,96701579.99999997
345,153035999.9999997
992,231449399.99999977
1016,231449399.99999977
1496,86620801.26038569
1532,57764642.17263899
1556,57764642.17263899
2227,17472139.182254316
2365,5972172.296604704
4121,208.7802182490627
4133,43.698597978610539
4170,146.49394504991595
4230,22883986.791142
4243,0.0
4354,46944421.62292956
4480,0.0
2,1, 8,21, 0, 7, 0.00,60.00,SummerDesignDay
10,613679206.5783886
46,249737579.99999974
70,96701579.99999997
345,153035999.9999997
992,231449399.99999977
1016,231449399.99999977
1496,66239088.76116453
1532,57764642.17263899
1556,57764642.17263899
2227,17472923.272382585
2365,6223765.14159205
4121,230.20559955803354
4133,54.85806601211276
4170,146.49394504991597
4230,2250681.4469334899
4243,0.0
4354,115019073.10040644
4480,0.0
2,1, 8,21, 0, 8, 0.00,60.00,SummerDesignDay
10,641604619.2578126
46,249737579.99999974
70,96701579.99999997
345,153035999.9999997
992,231449399.99999977
1016,231449399.99999977
1496,63713616.46122457
1532,57764642.17263899
1556,57764642.17263899
2227,17472065.52806123
2365,5910652.95402092
4121,236.44562440348452
4133,48.85214615023955
4170,146.49394504991595
4230,38321.33456466581
4243,0.0
4354,142945337.28412698
4480,0.0
2,1, 8,21, 0, 9, 0.00,60.00,SummerDesignDay
10,701718218.0443132
46,249737579.99999974
70,96701579.99999997
345,153035999.9999997
992,231449399.99999977
1016,231449399.99999977
1496,64049850.725637648
1532,57764642.17263899
1556,57764642.17263899
2227,17471898.792714314
2365,6285208.552998661
4121,251.5182112297034
4133,49.04332814115754
4170,146.49394504991595
4230,0.0
4243,0.0
4354,203059087.7333877
4480,0.0
2,1, 8,21, 0,10, 0.00,60.00,SummerDesignDay
10,760397304.4216215
46,249737579.99999974
70,96701579.99999997
345,153035999.9999997
992,231449399.99999977
1016,231449399.99999977
1496,63675158.86494506
1532,57764642.17263899
1556,57764642.17263899
2227,17471786.978079745
2365,5910516.692306074
4121,264.01539778019539
4133,49.78727651644801
4170,146.49394504991595
4230,0.0
4243,0.0
4354,261738273.4281438
4480,0.0
2,1, 8,21, 0,11, 0.00,60.00,SummerDesignDay
10,799611027.5050603
46,249737579.99999974
70,96701579.99999997
345,153035999.9999997
992,231449399.99999977
1016,231449399.99999977
1496,63977757.11749248
1532,57764642.17263899
1556,57764642.17263899
2227,17471785.6611865
2365,6213114.944853491
4121,271.77500360862237
4133,50.37993493984072
4170,146.49394504991595
4230,0.0
4243,0.0
4354,300951990.0688702
4480,0.0
2,1, 8,21, 0,12, 0.00,60.00,SummerDesignDay
10,827235217.7199159
46,249737579.99999974
70,96701579.99999997
345,153035999.9999997
992,231449399.99999977
1016,231449399.99999977
1496,63747281.563647758
1532,57764642.17263899
1556,57764642.17263899
2227,17472230.010082
2365,5982639.391008761
4121,276.8773993598218
4133,50.8939565541253
4170,146.49394504991595
4230,0.0
4243,0.0
4354,328575730.83243468
4480,0.0
2,1, 8,21, 0,13, 0.00,60.00,SummerDesignDay
10,849165439.2822899
46,249737579.99999974
70,96701579.99999997
345,153035999.9999997
992,231449399.99999977
1016,231449399.99999977
1496,63873447.02835149
1532,57764642.17263899
1556,57764642.17263899
2227,17471900.286837166
2365,6108804.855712496
4121,282.00122781219906
4133,51.43976359043298
4170,146.49394504991595
4230,0.0
4243,0.0
4354,350506276.9942249
4480,0.0
2,1, 8,21, 0,14, 0.00,60.00,SummerDesignDay
10,872524941.8354079
46,249737579.99999974
70,96701579.99999997
345,153035999.9999997
992,231449399.99999977
1016,231449399.99999977
1496,63851713.22814876
1532,57764642.17263899
1556,57764642.17263899
2227,17471761.780254317
2365,6087071.05550977
4121,289.51698088750217
4133,52.384800208508078
4170,146.49394504991595
4230,0.0
4243,0.0
4354,373865910.53817269
4480,0.0
2,1, 8,21, 0,15, 0.00,60.00,SummerDesignDay
10,888634532.165788
46,249737579.99999974
70,96701579.99999997
345,153035999.9999997
992,231449399.99999977
1016,231449399.99999977
1496,63768935.21375293
1532,57764642.17263899
1556,57764642.17263899
2227,17471692.379295127
2365,6004293.041113944
4121,296.4754344231172
4133,53.53754644839457
4170,146.49394504991595
4230,0.0
4243,0.0
4354,389975563.3110583
4480,0.0
2,1, 8,21, 0,16, 0.00,60.00,SummerDesignDay
10,885098634.7886126
46,249737579.99999974
70,96701579.99999997
345,153035999.9999997
992,231449399.99999977
1016,231449399.99999977
1496,63956169.74710108
1532,57764642.17263899
1556,57764642.17263899
2227,17562926.12498307
2365,6191527.574462087
4121,297.6135928184316
4133,54.02408667066859
4170,146.49394504991595
4230,0.0
4243,0.0
4354,386348431.0500367
4480,0.0
2,1, 8,21, 0,17, 0.00,60.00,SummerDesignDay
10,863006441.7589531
46,249737579.99999974
70,96701579.99999997
345,153035999.9999997
992,231449399.99999977
1016,231449399.99999977
1496,63798271.49184032
1532,57764642.17263899
1556,57764642.17263899
2227,17634699.772347124
2365,5910945.304350477
4121,291.49813891454417
4133,53.66037823994484
4170,146.49394504991595
4230,122684.0148508506
4243,0.0
4354,364184470.48846736
4480,0.0
2,1, 8,21, 0,18, 0.00,60.00,SummerDesignDay
10,828094090.3360486
46,249737579.99999974
70,96701579.99999997
345,153035999.9999997
992,231449399.99999977
1016,231449399.99999977
1496,64379676.21736733
1532,57764642.17263899
1556,57764642.17263899
2227,17634591.706574318
2365,6284929.189896951
4121,280.44585580397088
4133,52.24040982082103
4170,146.49394504991595
4230,330104.8548313853
4243,0.0
4354,329272238.18361839
4480,0.0
2,1, 8,21, 0,19, 0.00,60.00,SummerDesignDay
10,772948219.8604386
46,249737579.99999974
70,96701579.99999997
345,153035999.9999997
992,231449399.99999977
1016,231449399.99999977
1496,64296982.17841071
1532,57764642.17263899
1556,57764642.17263899
2227,17635009.435633169
2365,5910692.560014416
4121,262.3896679517518
4133,50.20054136067064
4170,146.49394504991595
4230,621647.4457572971
4243,0.0
4354,274125968.03513768
4480,0.0
2,1, 8,21, 0,20, 0.00,60.00,SummerDesignDay
10,731231887.105943
46,249737579.99999974
70,96701579.99999997
345,153035999.9999997
992,231449399.99999977
1016,231449399.99999977
1496,64923584.13088454
1532,57764642.17263899
1556,57764642.17263899
2227,17634518.530082976
2365,6245100.517885575
4121,250.19689117493568
4133,48.6171198160249
4170,146.49394504991595
4230,913841.4403599752
4243,0.0
4354,232410138.37896858
4480,0.0
2,1, 8,21, 0,21, 0.00,60.00,SummerDesignDay
10,697141770.4889375
46,249737579.99999974
70,96701579.99999997
345,153035999.9999997
992,231449399.99999977
1016,231449399.99999977
1496,64888148.84432517
1532,57764642.17263899
1556,57764642.17263899
2227,17634843.48895001
2365,5950736.804836075
4121,241.6453281178983
4133,47.55773222177681
4170,146.49394504991595
4230,1172769.8668501047
4243,0.0
4354,198319705.3546595
4480,0.0
2,1, 8,21, 0,22, 0.00,60.00,SummerDesignDay
10,641427581.9232355
46,249737579.99999974
70,96701579.99999997
345,153035999.9999997
992,231449399.99999977
1016,231449399.99999977
1496,63905692.91998768
1532,57764642.17263899
1556,57764642.17263899
2227,17635683.40782997
2365,6141050.747348696
4121,229.9810430457498
4133,42.489834550557109
4170,146.49394504991595
4230,0.0
4243,0.0
4354,142604688.53436248
4480,0.0
2,1, 8,21, 0,23, 0.00,60.00,SummerDesignDay
10,613397654.1631233
46,249737579.99999974
70,96701579.99999997
345,153035999.9999997
992,231449399.99999977
1016,231449399.99999977
1496,63819647.87795513
1532,57764642.17263899
1556,57764642.17263899
2227,17521716.467607179
2365,6055005.705316138
4121,224.10067306064847
4133,42.2703523520388
4170,146.49394504991595
4230,0.0
4243,0.0
4354,114688733.59484296
4480,0.0
2,1, 8,21, 0,24, 0.00,60.00,SummerDesignDay
10,589116583.2451038
46,249737579.99999974
70,96701579.99999997
345,153035999.9999997
992,231449399.99999977
1016,231449399.99999977
1496,63801072.79611849
1532,57764642.17263899
1556,57764642.17263899
2227,17472129.098560327
2365,6036430.6234795
4121,218.87814101572458
4133,42.097499813283608
4170,146.49394504991595
4230,0.0
4243,0.0
4354,90457255.26840243
4480,0.0
1,RIVERSIDE-MUNI ANN HTG 99.6% CONDNS DB,  33.95,-117.44,  -8.00, 253.00
2,1, 1,21, 0, 1, 0.00,60.00,WinterDesignDay
10,72208.2698189764
46,0.0
70,0.0
345,0.0
992,0.0
1016,0.0
1496,431564453.8775167
1532,0.0
1556,0.0
2227,72000.0
2365,579679.2082582207
4121,208.2698189763289
4133,40.18788804948776
4170,146.49394504991595
4230,430984774.6692585
4243,0.0
4354,0.0
4480,0.0
2,1, 1,21, 0, 2, 0.00,60.00,WinterDesignDay
10,72219.92665857429
46,0.0
70,0.0
345,0.0
992,0.0
1016,0.0
1496,513469469.3518316
1532,0.0
1556,0.0
2227,72000.0
2365,833426.0537777685
4121,219.92665857420386
4133,40.18788804948777
4170,146.49394504991595
4230,512636043.29805389
4243,0.0
4354,0.0
4480,0.0
2,1, 1,21, 0, 3, 0.00,60.00,WinterDesignDay
10,72228.27698330503
46,0.0
70,0.0
345,0.0
992,0.0
1016,0.0
1496,578729375.2833313
1532,0.0
1556,0.0
2227,72000.0
2365,833372.260113105
4121,228.27698330497769
4133,40.18788804948777
4170,146.49394504991595
4230,577896003.0232183
4243,0.0
4354,0.0
4480,0.0
2,1, 1,21, 0, 4, 0.00,60.00,WinterDesignDay
10,72234.48989791262
46,0.0
70,0.0
345,0.0
992,0.0
1016,0.0
1496,634406216.660095
1532,0.0
1556,0.0
2227,72000.0
2365,833413.0287646682
4121,234.48989791255077
4133,40.18788804948777
4170,146.49394504991595
4230,633572803.6313304
4243,0.0
4354,0.0
4480,0.0
2,1, 1,21, 0, 5, 0.00,60.00,WinterDesignDay
10,72239.52684939225
46,0.0
70,0.0
345,0.0
992,0.0
1016,0.0
1496,681356443.51164
1532,0.0
1556,0.0
2227,72000.0
2365,833295.4372784831
4121,239.52684939218799
4133,40.18788804948777
4170,146.49394504991595
4230,680523148.0743616
4243,0.0
4354,0.0
4480,0.0
2,1, 1,21, 0, 6, 0.00,60.00,WinterDesignDay
10,10499958.831293498
46,0.0
70,0.0
345,0.0
992,0.0
1016,0.0
1496,902635497.7025097
1532,0.0
1556,0.0
2227,72000.0
2365,670150.0893083506
4121,269.3607342057905
4133,66.84384612944062
4170,146.49394504991595
4230,901965347.6132014
4243,0.0
4354,10427689.470559292
4480,0.0
2,1, 1,21, 0, 7, 0.00,60.00,WinterDesignDay
10,32860901.513476999
46,0.0
70,0.0
345,0.0
992,0.0
1016,0.0
1496,1799111776.8718086
1532,0.0
1556,0.0
2227,72000.0
2365,742959.4146235166
4121,446.6387279228343
4133,143.5299566918672
4170,146.49394504991595
4230,1798368817.457185
4243,0.0
4354,32788454.87474908
4480,0.0
2,1, 1,21, 0, 8, 0.00,60.00,WinterDesignDay
10,7764169.151280402
46,0.0
70,0.0
345,0.0
992,0.0
1016,0.0
1496,1527888788.847217
1532,0.0
1556,0.0
2227,72000.0
2365,833535.8736628352
4121,344.88096344480325
4133,62.21855170421771
4170,146.49394504991595
4230,1527055252.9735542
4243,0.0
4354,7691824.270316957
4480,0.0
2,1, 1,21, 0, 9, 0.00,60.00,WinterDesignDay
10,72305.09452078752
46,0.0
70,0.0
345,0.0
992,0.0
1016,0.0
1496,1316279886.5472918
1532,0.0
1556,0.0
2227,72000.0
2365,833340.0621012632
4121,305.09452078746969
4133,41.03472117953619
4170,146.49394504991595
4230,1315446546.4851905
4243,0.0
4354,0.0
4480,0.0
2,1, 1,21, 0,10, 0.00,60.00,WinterDesignDay
10,72294.59532174385
46,0.0
70,0.0
345,0.0
992,0.0
1016,0.0
1496,1229062069.1841777
1532,0.0
1556,0.0
2227,72000.0
2365,833381.0479011827
4121,294.59532174377798
4133,40.50859142161057
4170,146.49394504991595
4230,1228228688.1362763
4243,0.0
4354,0.0
4480,0.0
2,1, 1,21, 0,11, 0.00,60.00,WinterDesignDay
10,72288.2660122265
46,0.0
70,0.0
345,0.0
992,0.0
1016,0.0
1496,1176338758.2783063
1532,0.0
1556,0.0
2227,72000.0
2365,833291.7376128661
4121,288.2660122264327
4133,40.37098682360486
4170,146.49394504991595
4230,1175505466.5406936
4243,0.0
4354,0.0
4480,0.0
2,1, 1,21, 0,12, 0.00,60.00,WinterDesignDay
10,72284.04134294136
46,0.0
70,0.0
345,0.0
992,0.0
1016,0.0
1496,1141509343.6986025
1532,0.0
1556,0.0
2227,72000.0
2365,579602.2431209798
4121,284.04134294126569
4133,40.30324012901521
4170,146.49394504991595
4230,1140929741.4554814
4243,0.0
4354,0.0
4480,0.0
2,1, 1,21, 0,13, 0.00,60.00,WinterDesignDay
10,72281.11110661787
46,0.0
70,0.0
345,0.0
992,0.0
1016,0.0
1496,1117860524.1532884
1532,0.0
1556,0.0
2227,72000.0
2365,833383.7857614663
4121,281.1111066178036
4133,40.26121710797115
4170,146.49394504991595
4230,1117027140.367527
4243,0.0
4354,0.0
4480,0.0
2,1, 1,21, 0,14, 0.00,60.00,WinterDesignDay
10,72279.0298330872
46,0.0
70,0.0
345,0.0
992,0.0
1016,0.0
1496,1100884047.3576139
1532,0.0
1556,0.0
2227,72000.0
2365,833425.2288979418
4121,279.0298330871464
4133,40.233324631684187
4170,146.49394504991595
4230,1100050622.1287158
4243,0.0
4354,0.0
4480,0.0
2,1, 1,21, 0,15, 0.00,60.00,WinterDesignDay
10,72277.55625470924
46,0.0
70,0.0
345,0.0
992,0.0
1016,0.0
1496,1088937404.23027
1532,0.0
1556,0.0
2227,72000.0
2365,833320.8965791834
4121,277.5562547092007
4133,40.2148586513228
4170,146.49394504991595
4230,1088104083.333691
4243,0.0
4354,0.0
4480,0.0
2,1, 1,21, 0,16, 0.00,60.00,WinterDesignDay
10,72276.48941755363
46,0.0
70,0.0
345,0.0
992,0.0
1016,0.0
1496,1080266387.5374692
1532,0.0
1556,0.0
2227,72000.0
2365,833348.7688307364
4121,276.4894175535626
4133,40.20238930926604
4170,146.49394504991595
4230,1079433038.7686384
4243,0.0
4354,0.0
4480,0.0
2,1, 1,21, 0,17, 0.00,60.00,WinterDesignDay
10,72275.71069333058
46,0.0
70,0.0
345,0.0
992,0.0
1016,0.0
1496,1073862415.629701
1532,0.0
1556,0.0
2227,72000.0
2365,833388.932467066
4121,275.7106933305188
4133,40.19433685614445
4170,146.49394504991595
4230,1073029026.6972338
4243,0.0
4354,0.0
4480,0.0
2,1, 1,21, 0,18, 0.00,60.00,WinterDesignDay
10,72275.14406517241
46,0.0
70,0.0
345,0.0
992,0.0
1016,0.0
1496,1068985994.4249356
1532,0.0
1556,0.0
2227,72000.0
2365,579580.7467856519
4121,275.14406517234979
4133,40.19054149488855
4170,146.49394504991595
4230,1068406413.6781497
4243,0.0
4354,0.0
4480,0.0
2,1, 1,21, 0,19, 0.00,60.00,WinterDesignDay
10,72274.74380629635
46,0.0
70,0.0
345,0.0
992,0.0
1016,0.0
1496,1065927427.9942912
1532,0.0
1556,0.0
2227,72000.0
2365,833353.9932318488
4121,274.74380629627128
4133,40.18841127921923
4170,146.49394504991595
4230,1065094074.0010594
4243,0.0
4354,0.0
4480,0.0
2,1, 1,21, 0,20, 0.00,60.00,WinterDesignDay
10,72274.44777723262
46,0.0
70,0.0
345,0.0
992,0.0
1016,0.0
1496,1063523654.8809924
1532,0.0
1556,0.0
2227,72000.0
2365,833393.0723301566
4121,274.44777723255018
4133,40.187936289195238
4170,146.49394504991595
4230,1062690261.8086622
4243,0.0
4354,0.0
4480,0.0
2,1, 1,21, 0,21, 0.00,60.00,WinterDesignDay
10,72274.2254320317
46,0.0
70,0.0
345,0.0
992,0.0
1016,0.0
1496,1061698966.4726442
1532,0.0
1556,0.0
2227,72000.0
2365,833433.7009210927
4121,274.22543203164607
4133,40.18788804948777
4170,146.49394504991595
4230,1060865532.7717232
4243,0.0
4354,0.0
4480,0.0
2,1, 1,21, 0,22, 0.00,60.00,WinterDesignDay
10,846473.5584698829
46,0.0
70,0.0
345,0.0
992,0.0
1016,0.0
1496,842195331.2429934
1532,0.0
1556,0.0
2227,846199.50453347
2365,833470.6293233128
4121,274.05393641297527
4133,40.18788804948777
4170,146.49394504991595
4230,841361860.6136701
4243,0.0
4354,0.0
4480,0.0
2,1, 1,21, 0,23, 0.00,60.00,WinterDesignDay
10,72186.68749042717
46,0.0
70,0.0
345,0.0
992,0.0
1016,0.0
1496,364988570.75205919
1532,0.0
1556,0.0
2227,72000.0
2365,774213.8766979812
4121,186.68749042708755
4133,40.19354537717162
4170,146.49394504991595
4230,364214356.8753611
4243,0.0
4354,0.0
4480,0.0
2,1, 1,21, 0,24, 0.00,60.00,WinterDesignDay
10,72194.79784553491
46,0.0
70,0.0
345,0.0
992,0.0
1016,0.0
1496,439516099.3498182
1532,0.0
1556,0.0
2227,72000.0
2365,638801.8520152685
4121,194.79784553484579
4133,40.27524221353377
4170,146.49394504991595
4230,438877297.497803
4243,0.0
4354,0.0
4480,0.0
1,RIVERSIDE-MUNI AUG CLG 0.4% CONDNS DB=>MCWB,  33.95,-117.44,  -8.00, 253.00
2,1, 8,21, 0, 1, 0.00,60.00,SummerDesignDay
10,714458085.1822125
46,249737579.99999974
70,96701579.99999997
345,153035999.9999997
992,231449399.99999977
1016,231449399.99999977
1496,63675134.18422333
1532,57764642.17263899
1556,57764642.17263899
2227,17471399.65176998
2365,5910492.01158434
4121,245.2158742534254
4133,40.279384961805067
4170,146.49394504991595
4230,0.0
4243,0.0
4354,215799460.31456826
4480,0.0
2,1, 8,21, 0, 2, 0.00,60.00,SummerDesignDay
10,703612520.1970619
46,249737579.99999974
70,96701579.99999997
345,153035999.9999997
992,231449399.99999977
1016,231449399.99999977
1496,63945668.17296557
1532,57764642.17263899
1556,57764642.17263899
2227,17472086.63618365
2365,6181026.000326579
4121,243.05904888390598
4133,40.29240985178476
4170,146.49394504991595
4230,0.0
4243,0.0
4354,204953210.5018295
4480,0.0
2,1, 8,21, 0, 3, 0.00,60.00,SummerDesignDay
10,696253630.7472789
46,249737579.99999974
70,96701579.99999997