Program Version,EnergyPlus, Version 9.0.1-bb7ca4f0da, YMD=2019.12.17 17:34
1,5,Environment Title[],Latitude[deg],Longitude[deg],Time Zone[],Elevation[m]
2,8,Day of Simulation[],Month[],Day of Month[],DST Indicator[1=yes 0=no],Hour[],StartMinute[],EndMinute[],DayType
3,5,Cumulative Day of Simulation[],Month[],Day of Month[],DST Indicator[1=yes 0=no],DayType  ! When Daily Meters Requested
4,2,Cumulative Days of Simulation[],Month[]  ! When Monthly Meters Requested
5,1,Cumulative Days of Simulation[] ! When Run Period Meters Requested
6,1,Calendar Year of Simulation[] ! When Annual Meters Requested
2366,1,WaterSystems:Gas [J] !Hourly
1533,1,InteriorEquipment:Gas [J] !Hourly
4355,1,Cooling:Electricity [J] !Hourly
346,1,NonComplianceLtg:InteriorLights:Electricity [J] !Hourly
1497,1,Gas:Facility [J] !Hourly
4244,1,Heating:Electricity [J] !Hourly
4171,1,ProcessMotors:Fans:Electricity [J] !Hourly
993,1,InteriorEquipment:Electricity [J] !Hourly
11,1,Electricity:Facility [J] !Hourly
47,1,InteriorLights:Electricity [J] !Hourly
4122,1,Fans:Electricity [J] !Hourly
4480,1,Pumps:Electricity [J] !Hourly
2228,1,WaterSystems:Electricity [J] !Hourly
4231,1,Heating:Gas [J] !Hourly
1557,1,Receptacle:InteriorEquipment:Gas [J] !Hourly
1017,1,Receptacle:InteriorEquipment:Electricity [J] !Hourly
71,1,ComplianceLtg:InteriorLights:Electricity [J] !Hourly
4134,1,General:Fans:Electricity [J] !Hourly
End of Data Dictionary
1,FULLERTON_722976_CZ2010,  33.87,-117.98,  -8.00,  29.00
2,1, 1, 1, 0, 1, 0.00,60.00,Holiday
11,55707441.831578049
47,24156278.99999996
71,4835078.999999999
346,19321199.999999968
993,18722069.99999997
1017,18722069.99999997
1497,1039384.0805386196
1533,0.0
1557,0.0
2228,795955.8679623389
2366,1039384.0805386196
4122,12033136.963615735
4134,8488078.333418435
4171,3545058.6301972989
4231,0.0
4244,0.0
4355,0.0
4480,0.0
2,1, 1, 1, 0, 2, 0.00,60.00,Holiday
11,56503132.40923202
47,24156278.99999996
71,4835078.999999999
346,19321199.999999968
993,18722069.99999997
1017,18722069.99999997
1497,1039284.8282707452
1533,0.0
1557,0.0
2228,1591646.4456163105
2366,1039284.8282707452
4122,12033136.963615735
4134,8488078.333418435
4171,3545058.6301972989
4231,0.0
4244,0.0
4355,0.0
4480,0.0
2,1, 1, 1, 0, 3, 0.00,60.00,Holiday
11,56503364.77058561
47,24156278.99999996
71,4835078.999999999
346,19321199.999999968
993,18722069.99999997
1017,18722069.99999997
1497,1061984.3833511694
1533,0.0
1557,0.0
2228,1591878.806969914
2366,1061984.3833511694
4122,12033136.963615735
4134,8488078.333418435
4171,3545058.6301972989
4231,0.0
4244,0.0
4355,0.0
4480,0.0
2,1, 1, 1, 0, 4, 0.00,60.00,Holiday
11,55701150.10797149
47,24156278.99999996
71,4835078.999999999
346,19321199.999999968
993,18722069.99999997
1017,18722069.99999997
1497,1270838.947072455
1533,0.0
1557,0.0
2228,789664.1443557855
2366,1270838.947072455
4122,12033136.963615735
4134,8488078.333418435
4171,3545058.6301972989
4231,0.0
4244,0.0
4355,0.0
4480,0.0
2,1, 1, 1, 0, 5, 0.00,60.00,Holiday
11,56491149.136026907
47,24156278.99999996
71,4835078.999999999
346,19321199.999999968
993,18722069.99999997
1017,18722069.99999997
1497,1034258.4625721996
1533,0.0
1557,0.0
2228,1579663.172411198
2366,1034258.4625721996
4122,12033136.963615735
4134,8488078.333418435
4171,3545058.6301972989
4231,0.0
4244,0.0
4355,0.0
4480,0.0
2,1, 1, 1, 0, 6, 0.00,60.00,Holiday
11,114847419.15466734
47,52754678.99999992
71,4835078.999999999
346,47919599.99999992
993,47320469.999999929
1017,47320469.999999929
1497,68020237.62027231
1533,0.0
1557,0.0
2228,789896.5672705115
2366,1040968.9918670243
4122,13942533.211229317
4134,10391288.573164499
4171,3545058.6301972989
4231,66979268.62840529
4244,11969.23084965021
4355,0.0
4480,27871.14531788687
2,1, 1, 1, 0, 7, 0.00,60.00,Holiday
11,171275291.08232618
47,74203478.99999988
71,4835078.999999999
346,69368399.9999999
993,68769269.9999999
1017,68769269.9999999
1497,371813514.0943324
1533,28597212.921243654
1557,28597212.921243654
2228,1591658.4793594173
2366,1039568.776184011
4122,26673541.960969546
4134,10391288.573164499
4171,3545058.6301972989
4231,342176732.3969048
4244,9396.509860784887
4355,0.0
4480,27945.13213655426
2,1, 1, 1, 0, 8, 0.00,60.00,Holiday
11,168869686.07405783
47,74180188.76894257
71,4811788.768942688
346,69368399.9999999
993,68769269.9999999
1017,68769269.9999999
1497,270552657.8063437
1533,28597212.921243654
1557,28597212.921243654
2228,1629142.9693848349
2366,1317469.7329693579
4122,24254143.970688568
4134,12280592.243734569
4171,3545058.6301972989
4231,240637975.15213067
4244,8787.16611715901
4355,0.0
4480,28153.19892470376
2,1, 1, 1, 0, 9, 0.00,60.00,Holiday
11,187114215.98879154
47,77608925.50052455
71,8240525.500524677
346,69368399.9999999
993,72641339.99999988
1017,72641339.99999988
1497,548692436.0238172
1533,0.0
1557,0.0
2228,2482858.012172467
2366,1329894.2691092166
4122,33172570.33269208
4134,23868570.57753642
4171,3545058.6301972989
4231,547362541.754708
4244,93627.91902024244
4355,0.0
4480,1114894.2243822313
2,1, 1, 1, 0,10, 0.00,60.00,Holiday
11,175366958.76578573
47,77332024.61351493
71,7963624.613515057
346,69368399.9999999
993,72641339.99999988
1017,72641339.99999988
1497,351135477.78570416
1533,0.0
1557,0.0
2228,2522850.789685922
2366,1342375.694749641
4122,22608726.651413107
4134,16502651.625666237
4171,3545058.6301972989
4231,349793102.0909545
4244,61882.84706085815
4355,0.0
4480,200133.86411098438
2,1, 1, 1, 0,11, 0.00,60.00,Holiday
11,178676487.88968829
47,76656914.19893429
71,28737314.19893434
346,47919599.99999992
993,74424959.99999996
1017,74424959.99999996
1497,221674449.50458808
1533,0.0
1557,0.0
2228,5747641.0870860279
2366,2023431.185146672
4122,21772285.174999209
4134,16453748.03767979
4171,3545058.6301972989
4231,219651018.31944139
4244,33802.33506461362
4355,0.0
4480,40885.09360414746
2,1, 1, 1, 0,12, 0.00,60.00,Holiday
11,176270886.8346365
47,75797434.10748202
71,27877834.107482058
346,47919599.99999992
993,74424959.99999996
1017,74424959.99999996
1497,114786738.80315309
1533,11438885.168497468
1557,11438885.168497468
2228,5855865.208247334
2366,2053312.767059878
4122,20118221.663038039
4134,16453748.037679788
4171,3545058.6301972989
4231,101294540.86759573
4244,17611.638118823794
4355,28656.765777420747
4480,28137.451972901235
2,1, 1, 1, 0,13, 0.00,60.00,Holiday
11,205348169.4288685
47,85714508.37005495
71,37794908.37005497
346,47919599.99999992
993,89913239.99999997
1017,89913239.99999997
1497,32016956.64514911
1533,11438885.168497468
1557,11438885.168497468
2228,6593252.471190423
2366,2409453.030920447
4122,19998806.667877087
4134,16453748.037679788
4171,3545058.6301972989
4231,18168618.4457312
4244,3252.905842227503
4355,3091906.878131059
4480,33202.13577276473
2,1, 1, 1, 0,14, 0.00,60.00,Holiday
11,210379210.39374117
47,86104164.59200159
71,38184564.59200161
346,47919599.99999992
993,89913239.99999997
1017,89913239.99999997
1497,12521788.215224946
1533,0.0
1557,0.0
2228,6723330.31650766
2366,2285341.798832851
4122,19998806.66787709
4134,16453748.03767979
4171,3545058.6301972989
4231,10236446.416392094
4244,1832.7313356813987
4355,7603600.019261301
4480,34236.06675782465
2,1, 1, 1, 0,15, 0.00,60.00,Holiday
11,214484429.85632233
47,86846403.79477188
71,38926803.79477192
346,47919599.99999992
993,89913239.99999997
1017,89913239.99999997
1497,10938799.365196165
1533,0.0
1557,0.0
2228,6025958.99115221
2366,2223928.2021863029
4122,19998883.79213184
4134,16453748.03767979
4171,3545058.6301972989
4231,8714871.163009864
4244,1560.3088041664183
4355,11663943.92340397
4480,34439.04605827712
2,1, 1, 1, 0,16, 0.00,60.00,Holiday
11,213816288.51366384
47,86208929.71018201
71,38289329.71018203
346,47919599.99999992
993,89913239.99999997
1017,89913239.99999997
1497,10036972.836903394
1533,0.0
1557,0.0
2228,7099734.551438807
2366,2086943.4409074186
4122,20033323.38737239
4134,16453748.03767979
4171,3545058.6301972989
4231,7950029.3959959759
4244,1423.371685929801
4355,10525092.921163829
4480,34544.571820916026
2,1, 1, 1, 0,17, 0.00,60.00,Holiday
11,214061960.66087056
47,89242826.3390228
71,41323226.339022818
346,47919599.99999992
993,89913239.99999997
1017,89913239.99999997
1497,38396140.83029705
1533,28597212.921243654
1557,28597212.921243654
2228,6644330.835085347
2366,2411401.918696106
4122,20011112.973432319
4134,16461219.464246674
4171,3545058.6301972989
4231,7387525.9903573
4244,1322.6611877738542
4355,8214504.234782283
4480,34623.61736004555
2,1, 1, 1, 0,18, 0.00,60.00,Holiday
11,185487468.96121515
47,78647111.99999994
71,30727511.99999999
346,47919599.99999992
993,74424959.99999996
1017,74424959.99999996
1497,50982927.506496537
1533,28597212.921243654
1557,28597212.921243654
2228,6605281.085114242
2366,2076086.9732342126
4122,19998806.66787709
4134,16453748.03767979
4171,3545058.6301972989
4231,20309627.612018676
4244,3636.2316986255448
4355,5774670.23657733
4480,33002.73994796093
2,1, 1, 1, 0,19, 0.00,60.00,Holiday
11,232272931.3941769
47,106749035.99999982
71,15931835.999999995
346,90817199.99999984
993,101834279.99999984
1017,101834279.99999984
1497,101297526.44596422
1533,28597212.921243654
1557,28597212.921243654
2228,4618400.68040708
2366,1982825.8013414709
4122,18095596.428131019
4134,14550537.79793372
4171,3545058.6301972989
4231,70717487.72337908
4244,12661.244973036455
4355,934338.9157283611
4480,28618.124937584387
2,1, 1, 1, 0,20, 0.00,60.00,Holiday
11,259801982.1965454
47,124250678.9999998
71,4835078.999999999
346,119415599.9999998
993,118816469.99999982
1017,118816469.99999982
1497,1716778.44404253
1533,0.0
1557,0.0
2228,4701696.232929877
2366,1716778.44404253
4122,12033136.963615735
4134,8488078.333418435
4171,3545058.6301972989
4231,0.0
4244,0.0
4355,0.0
4480,0.0
2,1, 1, 1, 0,21, 0.00,60.00,Holiday
11,288157722.9842795
47,138549878.9999998
71,4835078.999999999
346,133714799.99999979
993,133115669.99999979
1017,133115669.99999979
1497,1666514.7917977905
1533,0.0
1557,0.0
2228,4459037.020664054
2366,1666514.7917977905
4122,12033136.963615735
4134,8488078.333418435
4171,3545058.6301972989
4231,0.0
4244,0.0
4355,0.0
4480,0.0
2,1, 1, 1, 0,22, 0.00,60.00,Holiday
11,257665173.8742159
47,124250678.9999998
71,4835078.999999999
346,119415599.9999998
993,118816469.99999982
1017,118816469.99999982
1497,1636634.8840485244
1533,0.0
1557,0.0
2228,2564887.910600393
2366,1636634.8840485244
4122,12033136.963615735
4134,8488078.333418435
4171,3545058.6301972989
4231,0.0
4244,0.0
4355,0.0
4480,0.0
2,1, 1, 1, 0,23, 0.00,60.00,Holiday
11,200347461.39011104
47,95652278.99999984
71,4835078.999999999
346,90817199.99999984
993,90218069.99999985
1017,90218069.99999985
1497,1317443.5566820077
1533,0.0
1557,0.0
2228,2443975.4264955075
2366,1317443.5566820077
4122,12033136.963615735
4134,8488078.333418435
4171,3545058.6301972989
4231,0.0
4244,0.0
4355,0.0
4480,0.0
2,1, 1, 1, 0,24, 0.00,60.00,Holiday
11,112898153.58607394
47,52754678.99999992
71,4835078.999999999
346,47919599.99999992
993,47320469.999999929
1017,47320469.999999929
1497,1034681.5742028423
1533,0.0
1557,0.0
2228,789867.6224582328
2366,1034681.5742028423
4122,12033136.963615735
4134,8488078.333418435
4171,3545058.6301972989
4231,0.0
4244,0.0
4355,0.0
4480,0.0
2,2, 1, 2, 0, 1, 0.00,60.00,Friday
11,55689508.181326348
47,24156278.99999996
71,4835078.999999999
346,19321199.999999968
993,18722069.99999997
1017,18722069.99999997
1497,1027396.8630952791
1533,0.0
1557,0.0
2228,778022.2177106383
2366,1027396.8630952791
4122,12033136.963615735
4134,8488078.333418435
4171,3545058.6301972989
4231,0.0
4244,0.0
4355,0.0
4480,0.0
2,2, 1, 2, 0, 2, 0.00,60.00,Friday
11,56182472.547036219
47,24156278.99999996
71,4835078.999999999
346,19321199.999999968
993,18722069.99999997
1017,18722069.99999997
1497,1031741.9587568967
1533,0.0
1557,0.0
2228,1270986.5834205163
2366,1031741.9587568967
4122,12033136.963615735
4134,8488078.333418435
4171,3545058.6301972989
4231,0.0
4244,0.0
4355,0.0
4480,0.0
2,2, 1, 2, 0, 3, 0.00,60.00,Friday
11,55991940.78606202
47,24156278.99999996
71,4835078.999999999
346,19321199.999999968
993,18722069.99999997
1017,18722069.99999997
1497,1031829.5924411242
1533,0.0
1557,0.0
2228,1080454.8224463228
2366,1031829.5924411242
4122,12033136.963615735
4134,8488078.333418435
4171,3545058.6301972989
4231,0.0
4244,0.0
4355,0.0
4480,0.0
2,2, 1, 2, 0, 4, 0.00,60.00,Friday
11,55689459.57270515
47,24156278.99999996
71,4835078.999999999
346,19321199.999999968
993,18722069.99999997
1017,18722069.99999997
1497,1027183.8493629246
1533,0.0
1557,0.0
2228,777973.609089455
2366,1027183.8493629246
4122,12033136.963615735
4134,8488078.333418435
4171,3545058.6301972989
4231,0.0
4244,0.0
4355,0.0
4480,0.0
2,2, 1, 2, 0, 5, 0.00,60.00,Friday
11,55689504.1592222
47,24156278.99999996
71,4835078.999999999
346,19321199.999999968
993,18722069.99999997
1017,18722069.99999997
1497,1027143.6736978056
1533,0.0
1557,0.0
2228,778018.1956064991
2366,1027143.6736978056
4122,12033136.963615735
4134,8488078.333418435
4171,3545058.6301972989
4231,0.0
4244,0.0
4355,0.0
4480,0.0
2,2, 1, 2, 0, 6, 0.00,60.00,Friday
11,116726411.9116912
47,53890838.99999992
71,5971238.999999999
346,47919599.99999992
993,47871269.999999929
1017,47871269.999999929
1497,70555830.0919504
1533,0.0
1557,0.0
2228,778114.074714857
2366,1033426.7425198726
4122,14140689.519845233
4134,10595630.889647933
4171,3545058.6301972989
4231,69522403.34943053
4244,12930.197515926477
4355,0.0
4480,32569.11961520998
2,2, 1, 2, 0, 7, 0.00,60.00,Friday
11,178678261.25128565
47,80361638.99999988
71,5971238.999999999
346,74390399.99999988
993,69320069.9999999
1017,69320069.9999999
1497,446827927.3220351
1533,28597212.921243654
1557,28597212.921243654
2228,778085.1316831339
2366,1031492.4734322263
4122,27394517.94388763
4134,21116808.17772674
4171,3545058.6301972989
4231,417199221.92735919
4244,76914.26367426108
4355,0.0
4480,747034.9120407413
2,2, 1, 2, 0, 8, 0.00,60.00,Friday
11,203352276.96983568
47,95961004.99793051
71,21570604.997930644
346,74390399.99999988
993,83139479.99999988
1017,83139479.99999988
1497,306914547.29987838
1533,28882321.086319496
1557,28882321.086319496
2228,2570478.4084890575
2366,1670496.7142398742
4122,21542153.2963825
4134,16456216.787789267
4171,3545058.6301972989
4231,276361729.49931898
4244,48826.81829484088
4355,0.0
4480,90333.44873878702
2,2, 1, 2, 0, 9, 0.00,60.00,Friday
11,264794051.93133814
47,125786025.79646087
71,51395625.796460989
346,74390399.99999988
993,112981499.99999987
1017,112981499.99999987
1497,203444571.1988268
1533,285108.16507584266
1557,285108.16507584266
2228,4512603.86931656
2366,2404734.682074675
4122,21448716.14233561
4134,16453748.03767979
4171,3545058.6301972989
4231,200754728.35167627
4244,31251.928408990854
4355,0.0
4480,33954.194816115785
2,2, 1, 2, 0,10, 0.00,60.00,Friday
11,322552455.27310267
47,151115978.41288195
71,76725578.412882
346,74390399.99999988
993,143958059.99999995
1017,143958059.99999995
1497,153053291.80152089
1533,285108.16507584266
1557,285108.16507584266
2228,5917161.381312191
2366,2544429.761322289
4122,21512418.96173052
4134,16494314.795161734
4171,3545058.6301972989
4231,150223753.87512277
4244,20908.251826162268
4355,0.0
4480,27928.26535189399
2,2, 1, 2, 0,11, 0.00,60.00,Friday
11,281445385.18580499
47,129391714.23710993
71,76450114.23710995
346,52941599.9999999
993,122509259.99999996
1017,122509259.99999996
1497,157924063.6416404
1533,513194.69713651677
1557,513194.69713651677
2228,7550527.355231646
2366,3022684.2848655639
4122,21946218.66146369
4134,16503219.277219877
4171,3545058.6301972989
4231,154388184.65963833
4244,19911.53608632682
4355,0.0
4480,27753.39591344713
2,2, 1, 2, 0,12, 0.00,60.00,Friday
11,285009814.9126249
47,129175187.80610508
71,76233587.80610509
346,52941599.9999999
993,122509259.99999996
1017,122509259.99999996
1497,170871912.18495889
1533,11952079.865633984
1557,11952079.865633984
2228,10918464.421068583
2366,3798125.2427256025
4122,22359925.402631314
4134,16695802.540782078
4171,3545058.6301972989
4231,155121707.07659928
4244,19291.42438410768
4355,0.0
4480,27685.85843586302
2,2, 1, 2, 0,13, 0.00,60.00,Friday
11,285929912.9751738
47,128925221.56508534
71,75983621.56508535
346,52941599.9999999
993,122509259.99999996
1017,122509259.99999996
1497,174044316.6569603
1533,11952079.865633984
1557,11952079.865633984
2228,11846998.636743308
2366,4302408.640291244
4122,22601659.567372919
4134,16755847.6978813
4171,3545058.6301972989
4231,157789828.1510351
4244,19101.326115552605
4355,0.0
4480,27671.87985676661
2,2, 1, 2, 0,14, 0.00,60.00,Friday
11,285112954.8129314
47,128854613.51014504
71,75913013.51014507
346,52941599.9999999
993,122509259.99999996
1017,122509259.99999996
1497,160542160.18231044
1533,513194.69713651677
1557,513194.69713651677
2228,10909549.648946975
2366,4140625.4132650357
4122,22793672.86749631
4134,16798179.773839326
4171,3545058.6301972989
4231,155888340.0719089
4244,18214.906525900158
4355,0.0
4480,27643.87981729369
2,2, 1, 2, 0,15, 0.00,60.00,Friday
11,284150485.2974707
47,129260097.64005988
71,76318497.64005989
346,52941599.9999999
993,122509259.99999996
1017,122509259.99999996
1497,155919512.42423649
1533,427662.2476137639
1557,427662.2476137639
2228,9522592.237494939
2366,3150008.484911705
4122,22813086.513445975
4134,16869863.094196276
4171,3545058.6301972989
4231,152341841.691711
4244,17801.71085425768
4355,0.0
4480,27647.19561576323
2,2, 1, 2, 0,16, 0.00,60.00,Friday
11,282820430.0316307
47,129439769.63370653
71,76498169.63370654
346,52941599.9999999
993,122509259.99999996
1017,122509259.99999996
1497,136290524.83479233
1533,427662.2476137639
1557,427662.2476137639
2228,8146719.451286495
2366,3153037.780792433
4122,22680548.274945298
4134,17274735.81198912
4171,3545058.6301972989
4231,132709824.80638615
4244,16390.95080378894
4355,0.0
4480,27741.720888604985
2,2, 1, 2, 0,17, 0.00,60.00,Friday
11,284254192.8624802
47,130492185.95930086
71,77550585.95930089
346,52941599.9999999
993,122509259.99999996
1017,122509259.99999996
1497,155707767.5561125
1533,29024875.168857416
1557,29024875.168857416
2228,8834179.362230773
2366,3399159.437496869
4122,22374850.907474806
4134,17274225.5597447
4171,3545058.6301972989
4231,123283732.94975822
4244,15930.821786376058
4355,0.0
4480,27785.811687395275
2,2, 1, 2, 0,18, 0.00,60.00,Friday
11,272737660.1042202
47,123776342.99999996
71,70834742.99999997
346,52941599.9999999
993,118102859.99999997
1017,118102859.99999997
1497,162626445.4044271
1533,29024875.168857416
1557,29024875.168857416
2228,8815846.59015463
2366,3028545.4772303628
4122,21997752.97133071
4134,16880415.934260504
4171,3545058.6301972989
4231,130573024.75833932
4244,17167.558448934662
4355,0.0
4480,27689.98428608343
2,2, 1, 2, 0,19, 0.00,60.00,Friday
11,307188235.72441878
47,143344268.99999986
71,47505068.99999999
346,95839199.99999984
993,135564839.99999989
1017,135564839.99999989
1497,139628530.3198238
1533,28597212.921243654
1557,28597212.921243654
2228,7989995.323008945
2366,2904849.6694119374
4122,20242530.701160484
4134,16586899.996597603
4171,3545058.6301972989
4231,108126467.72916824
4244,18946.504915592745
4355,0.0
4480,27654.195333978023
2,2, 1, 2, 0,20, 0.00,60.00,Friday
11,362192681.4396346
47,171942668.99999974
71,47505068.99999999
346,124437599.9999998
993,164163239.99999974
1017,164163239.99999974
1497,100074140.8208346
1533,0.0
1557,0.0
2228,6027708.137812015
2366,2156713.774108759
4122,20013857.72566439
4134,16468799.09546709
4171,3545058.6301972989
4231,97917427.04672584
4244,17531.116713555988
4355,0.0
4480,27675.45944502215
2,2, 1, 2, 0,21, 0.00,60.00,Friday
11,375901412.6427515
47,180270629.9999997
71,41533829.999999988
346,138736799.9999998
993,169616699.99999974
1017,169616699.99999974
1497,102710115.27984464
1533,0.0
1557,0.0
2228,5969660.372411103
2366,2406231.278135688
4122,19998806.66787709
4134,16453748.03767979
4171,3545058.6301972989
4231,100303884.00170896
4244,17958.387493350092
4355,0.0
4480,27657.214970340894
2,2, 1, 2, 0,22, 0.00,60.00,Friday
11,294374859.8247899
47,143777915.9999998
71,19340315.999999998
346,124437599.9999998
993,132085079.9999998
1017,132085079.9999998
1497,40296796.06675507
1533,0.0
1557,0.0
2228,4537749.983681231
2366,1955080.2949448564
4122,13936347.203361799
4134,10391288.573164499
4171,3545058.6301972989
4231,38341715.77181021
4244,6864.693185543332
4355,0.0
4480,30901.94456154108
2,2, 1, 2, 0,23, 0.00,60.00,Friday
11,204034531.99504734
47,96788438.99999984
71,5971238.999999999
346,90817199.99999984
993,90768869.99999985
1017,90768869.99999985
1497,39085186.28657324
1533,0.0
1557,0.0
2228,2503191.7022511905
2366,1362866.9501218955
4122,13936347.203361799
4134,10391288.573164499
4171,3545058.6301972989
4231,37722319.336451347
4244,6753.796570632738
4355,0.0
4480,30930.292863897805
2,2, 1, 2, 0,24, 0.00,60.00,Friday
11,115652999.02999845
47,52754678.99999992
71,4835078.999999999
346,47919599.99999992
993,47320469.999999929
1017,47320469.999999929
1497,39231218.60957034
1533,0.0
1557,0.0
2228,1603801.631604646
2366,1046203.2368635079
4122,13936347.203361799
4134,10391288.573164499
4171,3545058.6301972989
4231,38185015.37270683
4244,6836.637577174137
4355,0.0
4480,30864.55745486207
2,3, 1, 3, 0, 1, 0.00,60.00,Saturday
11,57374730.993859637
47,24156278.99999996
71,4835078.999999999
346,19321199.999999968
993,18722069.99999997
1017,18722069.99999997
1497,1326230.1085049078
1533,0.0
1557,0.0
2228,2463245.0302439366
2366,1326230.1085049078
4122,12033136.963615735
4134,8488078.333418435
4171,3545058.6301972989
4231,0.0
4244,0.0
4355,0.0
4480,0.0
2,3, 1, 3, 0, 2, 0.00,60.00,Saturday
11,56540834.282917078
47,24156278.99999996
71,4835078.999999999
346,19321199.999999968
993,18722069.99999997
1017,18722069.99999997
1497,1320113.7874724107
1533,0.0
1557,0.0
2228,1629348.3193013736
2366,1320113.7874724107
4122,12033136.963615735
4134,8488078.333418435
4171,3545058.6301972989
4231,0.0
4244,0.0
4355,0.0
4480,0.0
2,3, 1, 3, 0, 3, 0.00,60.00,Saturday
11,56515791.5818018
47,24156278.99999996
71,4835078.999999999
346,19321199.999999968
993,18722069.99999997
1017,18722069.99999997
1497,1046287.3136703438
1533,0.0
1557,0.0
2228,1604305.6181861009
2366,1046287.3136703438
4122,12033136.963615735
4134,8488078.333418435
4171,3545058.6301972989
4231,0.0
4244,0.0
4355,0.0
4480,0.0
2,3, 1, 3, 0, 4, 0.00,60.00,Saturday
11,55701292.24442972
47,24156278.99999996
71,4835078.999999999
346,19321199.999999968
993,18722069.99999997
1017,18722069.99999997
1497,1086094.7954526637
1533,0.0
1557,0.0
2228,789806.2808140173
2366,1086094.7954526637
4122,12033136.963615735
4134,8488078.333418435
4171,3545058.6301972989
4231,0.0
4244,0.0
4355,0.0
4480,0.0
2,3, 1, 3, 0, 5, 0.00,60.00,Saturday
11,56491123.06825028
47,24156278.99999996
71,4835078.999999999
346,19321199.999999968
993,18722069.99999997
1017,18722069.99999997
1497,1246501.8726076645
1533,0.0
1557,0.0
2228,1579637.104634575
2366,1246501.8726076645
4122,12033136.963615735
4134,8488078.333418435
4171,3545058.6301972989
4231,0.0
4244,0.0
4355,0.0
4480,0.0
2,3, 1, 3, 0, 6, 0.00,60.00,Saturday
11,115169715.50842999
47,52754678.99999992
71,4835078.999999999
346,47919599.99999992
993,47320469.999999929
1017,47320469.999999929
1497,117476339.83560699
1533,0.0
1557,0.0
2228,789884.1007531042
2366,1042854.5930661899
4122,14235811.728051834
4134,10690753.097854536
4171,3545058.6301972989
4231,116433485.2425408
4244,21817.88958430165
4355,0.0
4480,47052.790040768574
2,3, 1, 3, 0, 7, 0.00,60.00,Saturday
11,185055082.39278195
47,80361638.99999988
71,5971238.999999999
346,74390399.99999988
993,69320069.9999999
1017,69320069.9999999
1497,654953195.9798684
1533,28597212.921243654
1557,28597212.921243654
2228,1591894.2517864214
2366,1296221.363196003
4122,33031495.662867875
4134,18803105.738800337
4171,3545058.6301972989
4231,625059761.6954287
4244,86928.44142071277
4355,0.0
4480,663055.0367070607
2,3, 1, 3, 0, 8, 0.00,60.00,Saturday
11,186874775.89641369
47,83678153.41219576
71,9287753.412195884
346,74390399.99999988
993,73192139.99999988
1017,73192139.99999988
1497,520643871.951283
1533,28597212.921243654
1557,28597212.921243654
2228,3562992.733688858
2366,1695135.5023651927
4122,26041038.02164857
4134,16454852.71828671
4171,3545058.6301972989
4231,490351523.52767416
4244,79243.59098431684
4355,0.0
4480,321208.1378962302
2,3, 1, 3, 0, 9, 0.00,60.00,Saturday
11,219783178.3174646
47,101356929.85666833
71,26966529.85666845
346,74390399.99999988
993,90883619.99999987
1017,90883619.99999987
1497,347124444.0964775
1533,285108.16507584266
1557,285108.16507584266
2228,4552710.073449357
2366,2021089.4492849836
4122,22804378.009855924
4134,16453748.03767979
4171,3545058.6301972989
4231,344818246.4821167
4244,59373.52609508391
4355,0.0
4480,126166.85139590253
2,3, 1, 3, 0,10, 0.00,60.00,Saturday
11,258832099.90177159
47,118112971.2629288
71,43722571.26292892
346,74390399.99999988
993,114116039.99999988
1017,114116039.99999988
1497,194598355.32338263
1533,285108.16507584266
1557,285108.16507584266
2228,5645988.912810495
2366,2081175.0323399723
4122,20886004.5658809
4134,16494073.04737602
4171,3545058.6301972989
4231,192232072.1259668
4244,32544.184510155217
4355,0.0
4480,38550.97564123091
2,3, 1, 3, 0,11, 0.00,60.00,Saturday
11,260840305.32885174
47,116762231.45411136
71,63820631.45411137
346,52941599.9999999
993,115899659.99999997
1017,115899659.99999997
1497,114585742.1754257
1533,513194.69713651677
1557,513194.69713651677
2228,7626918.494916153
2366,2822897.962752167
4122,20505104.113392738
4134,16581954.798434863
4171,3545058.6301972989
4231,111249649.51553703
4244,18393.76382787389
4355,0.0
4480,27997.502603634406
2,3, 1, 3, 0,12, 0.00,60.00,Saturday
11,264156826.271204
47,116751241.66833547
71,63809641.66833548
346,52941599.9999999
993,115899659.99999997
1017,115899659.99999997
1497,57090707.350343149
1533,11952079.865633984
1557,11952079.865633984
2228,9977245.103046939
2366,3207816.3097822919
4122,20611513.216571854
4134,16856510.406924298
4171,3545058.6301972989
4231,41930811.17492686
4244,7388.503566190398
4355,878776.412294852
4480,31001.36738877027
2,3, 1, 3, 0,13, 0.00,60.00,Saturday
11,262250342.35409118
47,113338400.29160284
71,60396800.29160286
346,52941599.9999999
993,114247259.99999997
1017,114247259.99999997
1497,27640596.098696028
1533,11952079.865633984
1557,11952079.865633984
2228,10617985.114148068
2366,3546196.3910960459
4122,21372249.51264467
4134,17294860.120248509
4171,3545058.6301972989
4231,12142319.841966
4244,2173.9585357083844
4355,2638155.935626038
4480,34117.541533860276
2,3, 1, 3, 0,14, 0.00,60.00,Saturday
11,267093539.57197375
47,113119083.47776437
71,60177483.477764379
346,52941599.9999999
993,114247259.99999997
1017,114247259.99999997
1497,6273241.844829599
1533,513194.69713651677
1557,513194.69713651677
2228,11552421.0553995
2366,3237049.00245165
4122,22395345.98931006
4134,18059127.72618431
4171,3545058.6301972989
4231,2522998.1452414335
4244,451.7170874108649
4355,5743631.8634985559
4480,35345.468913872355
2,3, 1, 3, 0,15, 0.00,60.00,Saturday
11,268896366.0435996
47,113072878.54193539
71,60131278.5419354
346,52941599.9999999
993,114247259.99999997
1017,114247259.99999997
1497,4875293.073055273
1533,427662.2476137639
1557,427662.2476137639
2228,8710881.623258889
2366,2978893.755282314
4122,23283524.081451678
4134,18790361.50749303
4171,3545058.6301972989
4231,1468737.0701591958
4244,262.96239367278306
4355,9546074.492184595
4480,35484.34237540158
2,3, 1, 3, 0,16, 0.00,60.00,Saturday
11,268593810.4629285
47,113446516.95103574
71,60504916.95103576
346,52941599.9999999
993,114247259.99999997
1017,114247259.99999997
1497,4570368.08986375
1533,427662.2476137639
1557,427662.2476137639
2228,9302564.59327604
2366,2939138.9166141988
4122,23470156.03755746
4134,19240741.676682459
4171,3545058.6301972989
4231,1203566.9256357877
4244,215.4863836018482
4355,8091577.671110617
4480,35519.72356505589
2,3, 1, 3, 0,17, 0.00,60.00,Saturday
11,266911614.4862227
47,117794751.06260017
71,64853151.06260019
346,52941599.9999999
993,114247259.99999997
1017,114247259.99999997
1497,33085741.908543946
1533,29024875.168857416
1557,29024875.168857416
2228,8858859.215500273
2366,2937236.0516292306
4122,23164329.95693555
4134,19360600.76096635
4171,3545058.6301972989
4231,1123630.6880572993
4244,201.17461548357148
4355,2810682.524833442
4480,35530.5517378838
2,3, 1, 3, 0,18, 0.00,60.00,Saturday
11,255357711.51028184
47,111937382.99999996
71,64017782.99999998
346,47919599.99999992
993,113145659.99999997
1017,113145659.99999997
1497,36587211.94235002
1533,28597212.921243654
1557,28597212.921243654
2228,8292828.185483985
2366,2550907.0066497309
4122,21936142.830355117
4134,18389122.188902294
4171,3545058.6301972989
4231,5439092.014456641
4244,973.8139552595418
4355,9750.5352997971
4480,34973.1451877766
2,3, 1, 3, 0,19, 0.00,60.00,Saturday
11,282263980.7072286
47,128942549.99999987
71,38125349.999999988
346,90817199.99999984
993,125066699.99999988
1017,125066699.99999988
1497,72108022.4247582
1533,28597212.921243654
1557,28597212.921243654
2228,8211025.013687125
2366,2745013.17097574
4122,20005247.246747775
4134,16460188.616550476
4171,3545058.6301972989
4231,40765796.3325388
4244,7298.700088246317
4355,0.0
4480,31159.746705627826
2,3, 1, 3, 0,20, 0.00,60.00,Saturday
11,305835631.0129531
47,142745273.9999998
71,23329673.999999994
346,119415599.9999998
993,138176819.9999998
1017,138176819.9999998
1497,57065651.05671385
1533,0.0
1557,0.0
2228,6778257.274306347
2366,2202875.8529803117
4122,18095596.428131019
4134,14550537.79793372
4171,3545058.6301972989
4231,54862775.20373353
4244,9822.620388781947
4355,0.0
4480,29860.690127201553
2,3, 1, 3, 0,21, 0.00,60.00,Saturday
11,333410463.7408321
47,157044473.99999977
71,23329673.999999994
346,133714799.99999979
993,152476019.99999977
1017,152476019.99999977
1497,105489176.7229068
1533,0.0
1557,0.0
2228,5747915.955548624
2366,2037014.5497102254
4122,18095596.428131019
4134,14550537.79793372
4171,3545058.6301972989
4231,103452162.17319659
4244,18522.05459261682
4355,0.0
4480,27935.302560109525
2,3, 1, 3, 0,22, 0.00,60.00,Saturday
11,272407122.04382237
47,127949597.9999998
71,8533997.999999999
346,119415599.9999998
993,122688539.9999998
1017,122688539.9999998