Program Version,EnergyPlus, Version 9.0.1-bb7ca4f0da, YMD=2019.11.26 11:24
1,5,Environment Title[],Latitude[deg],Longitude[deg],Time Zone[],Elevation[m]
2,8,Day of Simulation[],Month[],Day of Month[],DST Indicator[1=yes 0=no],Hour[],StartMinute[],EndMinute[],DayType
3,5,Cumulative Day of Simulation[],Month[],Day of Month[],DST Indicator[1=yes 0=no],DayType  ! When Daily Meters Requested
4,2,Cumulative Days of Simulation[],Month[]  ! When Monthly Meters Requested
5,1,Cumulative Days of Simulation[] ! When Run Period Meters Requested
6,1,Calendar Year of Simulation[] ! When Annual Meters Requested
47,1,InteriorLights:Electricity [J] !Hourly
4126,1,General:Fans:Electricity [J] !Hourly
993,1,InteriorEquipment:Electricity [J] !Hourly
11,1,Electricity:Facility [J] !Hourly
71,1,ComplianceLtg:InteriorLights:Electricity [J] !Hourly
4114,1,Fans:Electricity [J] !Hourly
4483,1,Pumps:Electricity [J] !Hourly
4280,1,Heating:Electricity [J] !Hourly
4222,1,Cooling:Electricity [J] !Hourly
2228,1,WaterSystems:Electricity [J] !Hourly
1497,1,Gas:Facility [J] !Hourly
1533,1,InteriorEquipment:Gas [J] !Hourly
4445,1,Heating:Gas [J] !Hourly
2366,1,WaterSystems:Gas [J] !Hourly
1017,1,Receptacle:InteriorEquipment:Electricity [J] !Hourly
1557,1,Receptacle:InteriorEquipment:Gas [J] !Hourly
346,1,NonComplianceLtg:InteriorLights:Electricity [J] !Hourly
4162,1,ProcessMotors:Fans:Electricity [J] !Hourly
End of Data Dictionary
1,SAN-JOSE-INTL_724945_CZ2010,  37.37,-121.93,  -8.00,  16.00
2,1, 1, 1, 0, 1, 0.00,60.00,Holiday
11,66341557.518742408
47,24156278.99999996
71,4835078.999999999
346,19321199.999999968
993,18722069.99999997
1017,18722069.99999997
1497,1042349.4213998953
1533,0.0
1557,0.0
2228,805502.0733320596
2366,1042349.4213998953
4114,22657706.445410395
4126,8458341.339612136
4162,14199365.10579826
4222,0.0
4280,0.0
4445,0.0
4483,0.0
2,1, 1, 1, 0, 2, 0.00,60.00,Holiday
11,67146844.29876013
47,24156278.99999996
71,4835078.999999999
346,19321199.999999968
993,18722069.99999997
1017,18722069.99999997
1497,1042592.5507880347
1533,0.0
1557,0.0
2228,1610788.8533497877
2366,1042592.5507880347
4114,22657706.445410395
4126,8458341.339612136
4162,14199365.10579826
4222,0.0
4280,0.0
4445,0.0
4483,0.0
2,1, 1, 1, 0, 3, 0.00,60.00,Holiday
11,67146862.32719863
47,24156278.99999996
71,4835078.999999999
346,19321199.999999968
993,18722069.99999997
1017,18722069.99999997
1497,1303235.4090085263
1533,0.0
1557,0.0
2228,1610806.8817882795
2366,1303235.4090085263
4114,22657706.445410395
4126,8458341.339612136
4162,14199365.10579826
4222,0.0
4280,0.0
4445,0.0
4483,0.0
2,1, 1, 1, 0, 4, 0.00,60.00,Holiday
11,66334837.45500685
47,24156278.99999996
71,4835078.999999999
346,19321199.999999968
993,18722069.99999997
1017,18722069.99999997
1497,1037175.8276453293
1533,0.0
1557,0.0
2228,798782.0095965132
2366,1037175.8276453293
4114,22657706.445410395
4126,8458341.339612136
4162,14199365.10579826
4222,0.0
4280,0.0
4445,0.0
4483,0.0
2,1, 1, 1, 0, 5, 0.00,60.00,Holiday
11,67133692.27701709
47,24156278.99999996
71,4835078.999999999
346,19321199.999999968
993,18722069.99999997
1017,18722069.99999997
1497,1037410.8491177575
1533,0.0
1557,0.0
2228,1597636.831606752
2366,1037410.8491177575
4114,22657706.445410395
4126,8458341.339612136
4162,14199365.10579826
4222,0.0
4280,0.0
4445,0.0
4483,0.0
2,1, 1, 1, 0, 6, 0.00,60.00,Holiday
11,136883542.3940312
47,52754678.99999992
71,4835078.999999999
346,47919599.99999992
993,47320469.999999929
1017,47320469.999999929
1497,1305365.3753127403
1533,0.0
1557,0.0
2228,1597675.7870477292
2366,1305365.3753127403
4114,24689867.02438388
4126,10490501.918585619
4162,14199365.10579826
4222,0.0
4280,10520850.582599646
4445,0.0
4483,0.0
2,1, 1, 1, 0, 7, 0.00,60.00,Holiday
11,255692409.5378767
47,74203478.99999988
71,4835078.999999999
346,69368399.9999999
993,68769269.9999999
1017,68769269.9999999
1497,29639784.61191684
1533,28597212.921243654
1557,28597212.921243654
2228,805527.6511884739
2366,1042571.6906731902
4114,32480713.049041146
4126,10490501.918585619
4162,14199365.105798258
4222,0.0
4280,79433419.83764732
4445,0.0
4483,0.0
2,1, 1, 1, 0, 8, 0.00,60.00,Holiday
11,218511679.6523242
47,74200627.58204538
71,4832227.582045493
346,69368399.9999999
993,68769269.9999999
1017,68769269.9999999
1497,30122096.353404177
1533,28597212.921243654
1557,28597212.921243654
2228,2477642.5571625556
2366,1322877.7727715118
4114,30089099.762081844
4126,12197454.21723483
4162,14199365.10579826
4222,0.0
4280,42950155.56088722
4445,202005.65938901116
4483,24884.190147276688
2,1, 1, 1, 0, 9, 0.00,60.00,Holiday
11,226009233.14544354
47,77864265.5937491
71,8495865.593749222
346,69368399.9999999
993,72641339.99999988
1017,72641339.99999988
1497,336105987.58991816
1533,0.0
1557,0.0
2228,2520514.1093653428
2366,1336475.4599489636
4114,40246206.13653393
4126,23535822.649121416
4162,14199365.10579826
4222,0.0
4280,31984603.027997737
4445,334769512.1299692
4483,752304.277797507
2,1, 1, 1, 0,10, 0.00,60.00,Holiday
11,214930811.60239945
47,77818802.32999805
71,8450402.329998168
346,69368399.9999999
993,72641339.99999988
1017,72641339.99999988
1497,247074267.03750963
1533,0.0
1557,0.0
2228,2564791.766542364
2366,1349950.3648175896
4114,32923526.573187397
4126,16555235.085266505
4162,14199365.10579826
4222,0.0
4280,28718438.564193477
4445,245724316.672692
4483,263912.3684782707
2,1, 1, 1, 0,11, 0.00,60.00,Holiday
11,231184889.87878488
47,78179413.57358897
71,30259813.573589013
346,47919599.99999992
993,74424959.99999996
1017,74424959.99999996
1497,172432264.5108381
1533,0.0
1557,0.0
2228,5909596.674549982
2366,2047760.4020381144
4114,33967845.74081941
4126,16519577.605455209
4162,14199365.10579826
4222,0.0
4280,38492560.9495286
4445,170384504.1088
4483,210512.9402979771
2,1, 1, 1, 0,12, 0.00,60.00,Holiday
11,235179927.55494989
47,78042289.0661919
71,30122689.06619194
346,47919599.99999992
993,74424959.99999996
1017,74424959.99999996
1497,180562866.7354621
1533,11438885.168497468
1557,11438885.168497468
2228,6032014.063980034
2366,2378471.215739386
4114,34339878.838442299
4126,16519577.605455209
4162,14199365.10579826
4222,0.0
4280,42133002.67092228
4445,166745510.35122527
4483,207782.91541346303
2,1, 1, 1, 0,13, 0.00,60.00,Holiday
11,262635195.33472193
47,88622815.562555
71,40703215.562555018
346,47919599.99999992
993,89913239.99999997
1017,89913239.99999997
1497,131601491.6334459
1533,11438885.168497468
1557,11438885.168497468
2228,7422368.774379947
2366,2322923.8512810126
4114,34332064.56702168
4126,16519577.605455209
4162,14199365.10579826
4222,0.0
4280,42143327.50350751
4445,117839682.61366743
4483,201378.9272579325
2,1, 1, 1, 0,14, 0.00,60.00,Holiday
11,260809208.04499568
47,88809111.32427994
71,40889511.32427996
346,47919599.99999992
993,89913239.99999997
1017,89913239.99999997
1497,104879322.78606671
1533,0.0
1557,0.0
2228,7423152.038353229
2366,2440364.146462477
4114,34148336.66859822
4126,16519577.605455209
4162,14199365.10579826
4222,0.0
4280,40315283.97287247
4445,102438958.63960421
4483,200084.04089187395
2,1, 1, 1, 0,15, 0.00,60.00,Holiday
11,258666348.90414918
47,88882918.73127637
71,40963318.731276389
346,47919599.99999992
993,89913239.99999997
1017,89913239.99999997
1497,96247503.93411239
1533,0.0
1557,0.0
2228,6456479.770562271
2366,2265422.9436758218
4114,34032630.86304961
4126,16519577.605455209
4162,14199365.10579826
4222,0.0
4280,39181561.15062666
4445,93982080.99043657
4483,199518.38863439486
2,1, 1, 1, 0,16, 0.00,60.00,Holiday
11,250784189.51714338
47,88916847.15711832
71,40997247.15711835
346,47919599.99999992
993,89913239.99999997
1017,89913239.99999997
1497,82934837.26019115
1533,0.0
1557,0.0
2228,7108714.502857522
2366,2421342.2857086488
4114,33188994.946980515
4126,16519577.605455209
4162,14199365.10579826
4222,0.0
4280,31457522.07220889
4445,80513494.9744825
4483,198870.8379782427
2,1, 1, 1, 0,17, 0.00,60.00,Holiday
11,246955745.06211979
47,89606015.86764741
71,41686415.86764742
346,47919599.99999992
993,89913239.99999997
1017,89913239.99999997
1497,108232662.28041464
1533,28597212.921243654
1557,28597212.921243654
2228,7504095.377818655
2366,2448932.650793167
4114,32696673.40423382
4126,16519577.605455209
4162,14199365.10579826
4222,0.0
4280,27037010.984730156
4445,77186516.70837784
4483,198709.4276898761
2,1, 1, 1, 0,18, 0.00,60.00,Holiday
11,222632527.82514183
47,78647111.99999994
71,30727511.99999999
346,47919599.99999992
993,74424959.99999996
1017,74424959.99999996
1497,148101655.74274076
1533,28597212.921243654
1557,28597212.921243654
2228,7263365.507422698
2366,2106254.127475892
4114,32912405.907791739
4126,16519577.605455209
4162,14199365.10579826
4222,0.0
4280,29183806.544705824
4445,117398188.69402121
4483,200877.8652216738
2,1, 1, 1, 0,19, 0.00,60.00,Holiday
11,246770306.22128529
47,106749035.99999982
71,15931835.999999995
346,90817199.99999984
993,101834279.99999984
1017,101834279.99999984
1497,202599313.32249705
1533,28597212.921243654
1557,28597212.921243654
2228,4733062.650971762
2366,2003357.5117128343
4114,29147420.673285895
4126,14487417.026481724
4162,14199365.10579826
4222,0.0
4280,4098503.2057066115
4445,171998742.88954056
4483,208003.6913212373
2,1, 1, 1, 0,20, 0.00,60.00,Holiday
11,272287496.6003907
47,124250678.9999998
71,4835078.999999999
346,119415599.9999998
993,118816469.99999982
1017,118816469.99999982
1497,2025353.3849540735
1533,0.0
1557,0.0
2228,5748949.232507431
2366,2025353.3849540735
4114,22740477.903124919
4126,8458341.339612136
4162,14199365.10579826
4222,0.0
4280,730920.4647586881
4445,0.0
4483,0.0
2,1, 1, 1, 0,21, 0.00,60.00,Holiday
11,298304839.57947
47,138549878.9999998
71,4835078.999999999
346,133714799.99999979
993,133115669.99999979
1017,133115669.99999979
1497,1680594.9419581847
1533,0.0
1557,0.0
2228,3684669.1139103116
2366,1680594.9419581847
4114,22687909.61556087
4126,8458341.339612136
4162,14199365.10579826
4222,0.0
4280,266711.8499991887
4445,0.0
4483,0.0
2,1, 1, 1, 0,22, 0.00,60.00,Holiday
11,269669822.5773481
47,124250678.9999998
71,4835078.999999999
346,119415599.9999998
993,118816469.99999982
1017,118816469.99999982
1497,1648238.371949375
1533,0.0
1557,0.0
2228,3481377.067035955
2366,1648238.371949375
4114,22704864.360232317
4126,8458341.339612136
4162,14199365.10579826
4222,0.0
4280,416432.1500801417
4445,0.0
4483,0.0
2,1, 1, 1, 0,23, 0.00,60.00,Holiday
11,210179691.94118247
47,95652278.99999984
71,4835078.999999999
346,90817199.99999984
993,90218069.99999985
1017,90218069.99999985
1497,1322970.4820917529
1533,0.0
1557,0.0
2228,1651636.495772324
2366,1322970.4820917529
4114,22657706.445410395
4126,8458341.339612136
4162,14199365.10579826
4222,0.0
4280,0.0
4445,0.0
4483,0.0
2,1, 1, 1, 0,24, 0.00,60.00,Holiday
11,124330624.27759993
47,52754678.99999992
71,4835078.999999999
346,47919599.99999992
993,47320469.999999929
1017,47320469.999999929
1497,1037409.0508265894
1533,0.0
1557,0.0
2228,1597768.832189594
2366,1037409.0508265894
4114,22657706.445410395
4126,8458341.339612136
4162,14199365.10579826
4222,0.0
4280,0.0
4445,0.0
4483,0.0
2,2, 1, 2, 0, 1, 0.00,60.00,Friday
11,66322005.61014674
47,24156278.99999996
71,4835078.999999999
346,19321199.999999968
993,18722069.99999997
1017,18722069.99999997
1497,1029594.0294741696
1533,0.0
1557,0.0
2228,785950.1647363931
2366,1029594.0294741696
4114,22657706.445410395
4126,8458341.339612136
4162,14199365.10579826
4222,0.0
4280,0.0
4445,0.0
4483,0.0
2,2, 1, 2, 0, 2, 0.00,60.00,Friday
11,66328418.446228478
47,24156278.99999996
71,4835078.999999999
346,19321199.999999968
993,18722069.99999997
1017,18722069.99999997
1497,1034376.2304893115
1533,0.0
1557,0.0
2228,792363.0008181334
2366,1034376.2304893115
4114,22657706.445410395
4126,8458341.339612136
4162,14199365.10579826
4222,0.0
4280,0.0
4445,0.0
4483,0.0
2,2, 1, 2, 0, 3, 0.00,60.00,Friday
11,67519882.57994579
47,24156278.99999996
71,4835078.999999999
346,19321199.999999968
993,18722069.99999997
1017,18722069.99999997
1497,1034532.8648234619
1533,0.0
1557,0.0
2228,1584699.327980068
2366,1034532.8648234619
4114,22700403.263803103
4126,8458341.339612136
4162,14199365.10579826
4222,0.0
4280,356430.9881626776
4445,0.0
4483,0.0
2,2, 1, 2, 0, 4, 0.00,60.00,Friday
11,71394738.3605448
47,24156278.99999996
71,4835078.999999999
346,19321199.999999968
993,18722069.99999997
1017,18722069.99999997
1497,1029570.638019105
1533,0.0
1557,0.0
2228,785774.011293435
2366,1029570.638019105
4114,23207097.599961826
4126,8458341.339612136
4162,14199365.10579826
4222,0.0
4280,4523517.749289594
4445,0.0
4483,0.0
2,2, 1, 2, 0, 5, 0.00,60.00,Friday
11,78543952.55312403
47,24156278.99999996
71,4835078.999999999
346,19321199.999999968
993,18722069.99999997
1017,18722069.99999997
1497,1029589.2182443343
1533,0.0
1557,0.0
2228,785888.405775606
2366,1029589.2182443343
4114,23986313.882624616
4126,8458341.339612136
4162,14199365.10579826
4222,0.0
4280,10893401.264723856
4445,0.0
4483,0.0
2,2, 1, 2, 0, 6, 0.00,60.00,Friday
11,164549854.12487633
47,53890838.99999992
71,5971238.999999999
346,47919599.99999992
993,47871269.999999929
1017,47871269.999999929
1497,1036314.0264165141
1533,0.0
1557,0.0
2228,785991.3009222756
2366,1036314.0264165141
4114,25717058.22343153
4126,10490501.918585619
4162,14199365.10579826
4222,0.0
4280,36284695.60052256
4445,0.0
4483,0.0
2,2, 1, 2, 0, 7, 0.00,60.00,Friday
11,405022116.77002778
47,80361638.99999988
71,5971238.999999999
346,74390399.99999988
993,69320069.9999999
1017,69320069.9999999
1497,449795495.11663338
1533,28597212.921243654
1557,28597212.921243654
2228,786020.6719427247
2366,1273777.6798794973
4114,58294958.44681146
4126,23718067.473346156
4162,14199365.105798258
4222,0.0
4280,195218894.4488503
4445,419924504.5155102
4483,1040534.2024234372
2,2, 1, 2, 0, 8, 0.00,60.00,Friday
11,361389880.8006409
47,95754946.90930653
71,21364546.90930665
346,74390399.99999988
993,83139479.99999988
1017,83139479.99999988
1497,364026673.77702859
1533,28882321.086319496
1557,28882321.086319496
2228,3256396.079204573
2366,1705698.273415841
4114,43194870.26054407
4126,16544224.926144168
4162,14199365.10579826
4222,0.0
4280,135693911.12838648
4445,333438654.4172932
4483,350276.42319942309
2,2, 1, 2, 0, 9, 0.00,60.00,Friday
11,392424069.56223836
47,123245673.0329594
71,48855273.03295952
346,74390399.99999988
993,112981499.99999987
1017,112981499.99999987
1497,268681096.39996108
1533,285108.16507584266
1557,285108.16507584266
2228,4711203.172328379
2366,2442061.648412727
4114,40178068.70382712
4126,16519577.605455209
4162,14199365.10579826
4222,0.0
4280,111045700.46338624
4445,265953926.5864725
4483,261924.1897373043
2,2, 1, 2, 0,10, 0.00,60.00,Friday
11,414087284.20210447
47,149544905.52105106
71,75154505.5210511
346,74390399.99999988
993,143958059.99999995
1017,143958059.99999995
1497,186004080.31133933
1533,285108.16507584266
1557,285108.16507584266
2228,6261741.063833664
2366,2641285.211132329
4114,37333923.61462739
4126,16563760.91094263
4162,14199365.10579826
4222,0.0
4280,76767608.79052189
4445,183077686.9351312
4483,221045.2120705509
2,2, 1, 2, 0,11, 0.00,60.00,Friday
11,358929612.20600166
47,128127258.30433974
71,75185658.30433975
346,52941599.9999999
993,122509259.99999996
1017,122509259.99999996
1497,145942666.72569184
1533,513194.69713651677
1557,513194.69713651677
2228,7858563.103333618
2366,3404037.1892050069
4114,36651341.32670854
4126,16615858.545372976
4162,14199365.10579826
4222,0.0
4280,63575812.0078044
4445,142025434.8393503
4483,207377.46381538947
2,2, 1, 2, 0,12, 0.00,60.00,Friday
11,346286672.352824
47,128470218.41625315
71,75528618.4162532
346,52941599.9999999
993,122509259.99999996
1017,122509259.99999996
1497,119593220.47349088
1533,11952079.865633984
1557,11952079.865633984
2228,11909340.17040429
2366,3954984.029687775
4114,35254035.11991882
4126,16840894.038687149
4162,14199365.10579826
4222,0.0
4280,47942760.21366976
4445,103686156.57816912
4483,201058.43257803855
2,2, 1, 2, 0,13, 0.00,60.00,Friday
11,332079121.7352386
47,126258418.05305113
71,73316818.05305116
346,52941599.9999999
993,122509259.99999996
1017,122509259.99999996
1497,117037475.33651637
1533,11952079.865633984
1557,11952079.865633984
2228,12408687.122247823
2366,4404025.212542501
4114,34032215.17740315
4126,16899431.948764709
4162,14199365.10579826
4222,0.0
4280,36670231.50979401
4445,100681370.25833988
4483,200309.8727426413
2,2, 1, 2, 0,14, 0.00,60.00,Friday
11,334638939.9186759
47,129100159.66204548
71,76158559.66204551
346,52941599.9999999
993,122509259.99999996
1017,122509259.99999996
1497,103578337.73272568
1533,513194.69713651677
1557,513194.69713651677
2228,12006879.259982359
2366,4447992.177388364
4114,34091955.85029778
4126,16954708.994252158
4162,14199365.10579826
4222,0.0
4280,36730459.43043547
4445,98617150.85820079
4483,200225.71591489006
2,2, 1, 2, 0,15, 0.00,60.00,Friday
11,332329469.3770842
47,128843244.46552034
71,75901644.46552035
346,52941599.9999999
993,122509259.99999996
1017,122509259.99999996
1497,88806020.16160594
1533,427662.2476137639
1557,427662.2476137639
2228,10102777.636840316
2366,3464017.1701824695
4114,34210296.68738357
4126,17036470.755954345
4162,14199365.10579826
4222,0.0
4280,36464656.21179602
4445,84914340.74380972
4483,199234.3755441119
2,2, 1, 2, 0,16, 0.00,60.00,Friday
11,316702566.37446776
47,125153515.09899767
71,72211915.09899768
346,52941599.9999999
993,122509259.99999996
1017,122509259.99999996
1497,75894369.79193324
1533,427662.2476137639
1557,427662.2476137639
2228,9094298.892394968
2366,3273580.0692522285
4114,33532613.44368381
4126,17397823.917567497
4162,14199365.10579826
4222,0.0
4280,26214278.277395056
4445,72193127.47506723
4483,198600.6619964287
2,2, 1, 2, 0,17, 0.00,60.00,Friday
11,321701959.2537639
47,129252086.32614191
71,76310486.32614193
346,52941599.9999999
993,122509259.99999996
1017,122509259.99999996
1497,120885560.28201507
1533,29024875.168857416
1557,29024875.168857416
2228,9535823.71429297
2366,3619927.385003019
4114,33579975.815510649
4126,17410491.944791989
4162,14199365.10579826
4222,0.0
4280,26625473.113039324
4445,88240757.72815463
4483,199340.28477922589
2,2, 1, 2, 0,18, 0.00,60.00,Friday
11,326204471.62460389
47,123776342.99999996
71,70834742.99999997
346,52941599.9999999
993,118102859.99999997
1017,118102859.99999997
1497,145819672.02999068
1533,29024875.168857416
1557,29024875.168857416
2228,9645914.666507476
2366,3110620.289363271
4114,34446162.92975614
4126,16994779.40436752
4162,14199365.10579826
4222,0.0
4280,40031505.497987929
4445,113684176.57176999
4483,201685.5303524203
2,2, 1, 2, 0,19, 0.00,60.00,Friday
11,342736173.04458698
47,143344268.99999986
71,47505068.99999999
346,95839199.99999984
993,135564839.99999989
1017,135564839.99999989
1497,164024758.41781894
1533,28597212.921243654
1557,28597212.921243654
2228,7947187.287755085
2366,2970480.7590578228
4114,32190975.265319416
4126,16681600.691951562
4162,14199365.10579826
4222,0.0
4280,23484242.24839215
4445,132457064.73751748
4483,204659.24312053715
2,2, 1, 2, 0,20, 0.00,60.00,Friday
11,391050080.4086032
47,171942668.99999974
71,47505068.99999999
346,124437599.9999998
993,164163239.99999974
1017,164163239.99999974
1497,140223646.71013258
1533,0.0
1557,0.0
2228,7265993.7517626979
2366,2475259.7650492626
4114,31132354.213996334
4126,16554197.664011872
4162,14199365.10579826
4222,0.0
4280,16340016.442697799
4445,137748386.94508333
4483,205807.00014680456
2,2, 1, 2, 0,21, 0.00,60.00,Friday
11,405100627.3097782
47,180270629.9999997
71,41533829.999999988
346,138736799.9999998
993,169616699.99999974
1017,169616699.99999974
1497,152312058.10738314
1533,0.0
1557,0.0
2228,6162176.407592605
2366,2473478.2456622088
4114,30998710.313958609
4126,16519577.605455209
4162,14199365.10579826
4222,0.0
4280,17843904.09320434
4445,149838579.86172093
4483,208506.4950231025
2,2, 1, 2, 0,22, 0.00,60.00,Friday
11,326608638.5935742
47,143777915.9999998
71,19340315.999999998
346,124437599.9999998
993,132085079.9999998
1017,132085079.9999998
1497,2000448.4685922033
1533,0.0
1557,0.0
2228,4643218.126327135
2366,2000448.4685922033
4114,25193988.383267926
4126,10490501.918585619
4162,14199365.10579826
4222,0.0
4280,20908436.083979459
4445,0.0
4483,0.0
2,2, 1, 2, 0,23, 0.00,60.00,Friday
11,233089433.65465794
47,96788438.99999984
71,5971238.999999999
346,90817199.99999984
993,90768869.99999985
1017,90768869.99999985
1497,1346325.0499522573
1533,0.0
1557,0.0
2228,2542820.869451733
2366,1346325.0499522573
4114,24689867.02438388
4126,10490501.918585619
4162,14199365.10579826
4222,0.0
4280,18299436.760822555
4445,0.0
4483,0.0
2,2, 1, 2, 0,24, 0.00,60.00,Friday
11,147416695.10869596
47,52754678.99999992
71,4835078.999999999
346,47919599.99999992
993,47320469.999999929
1017,47320469.999999929
1497,1054357.6997828815
1533,0.0
1557,0.0
2228,1624510.5812811328
2366,1054357.6997828815
4114,24689867.02438388
4126,10490501.918585619
4162,14199365.10579826
4222,0.0
4280,21027168.503030987
4445,0.0
4483,0.0
2,3, 1, 3, 0, 1, 0.00,60.00,Saturday
11,68035584.31025145
47,24156278.99999996
71,4835078.999999999
346,19321199.999999968
993,18722069.99999997
1017,18722069.99999997
1497,1328431.8914033857
1533,0.0
1557,0.0
2228,2499528.8648411098
2366,1328431.8914033857
4114,22657706.445410395
4126,8458341.339612136
4162,14199365.10579826
4222,0.0
4280,0.0
4445,0.0
4483,0.0
2,3, 1, 3, 0, 2, 0.00,60.00,Saturday
11,69375523.11308487
47,24156278.99999996
71,4835078.999999999
346,19321199.999999968
993,18722069.99999997
1017,18722069.99999997
1497,1325824.208426348
1533,0.0
1557,0.0
2228,2477645.434446307
2366,1325824.208426348
4114,22805232.99362016
4126,8458341.339612136
4162,14199365.10579826
4222,0.0
4280,1214295.685018465
4445,0.0
4483,0.0
2,3, 1, 3, 0, 3, 0.00,60.00,Saturday
11,80866771.24682214
47,24156278.99999996
71,4835078.999999999
346,19321199.999999968
993,18722069.99999997
1017,18722069.99999997
1497,1312588.049819325
1533,0.0
1557,0.0
2228,1624057.5791842947
2366,1312588.049819325
4114,24145080.68704761
4126,8458341.339612136
4162,14199365.10579826
4222,0.0
4280,12219283.980590266
4445,0.0
4483,0.0
2,3, 1, 3, 0, 4, 0.00,60.00,Saturday
11,97688732.8739188
47,24156278.99999996
71,4835078.999999999
346,19321199.999999968
993,18722069.99999997
1017,18722069.99999997
1497,1039586.7929811061
1533,0.0
1557,0.0
2228,798859.3161776046
2366,1039586.7929811061
4114,26074436.117310686
4126,8458341.339612136
4162,14199365.10579826
4222,0.0
4280,27937088.440430535
4445,0.0
4483,0.0
2,3, 1, 3, 0, 5, 0.00,60.00,Saturday
11,114933876.3154909
47,24156278.99999996
71,4835078.999999999
346,19321199.999999968
993,18722069.99999997
1017,18722069.99999997
1497,1131620.1900244565
1533,0.0
1557,0.0
2228,1597530.773472636
2366,1131620.1900244565
4114,27887341.531890304
4126,8458341.339612136
4162,14199365.10579826
4222,0.0
4280,42570655.01012802
4445,0.0
4483,0.0
2,3, 1, 3, 0, 6, 0.00,60.00,Saturday
11,220963053.47591759
47,52754678.99999992
71,4835078.999999999
346,47919599.99999992
993,47320469.999999929
1017,47320469.999999929
1497,1215516.7706834626
1533,0.0
1557,0.0
2228,798852.225104881
2366,1215516.7706834626
4114,29744514.628980474
4126,10490501.918585619
4162,14199365.10579826
4222,0.0
4280,90344537.6218323
4445,0.0
4483,0.0
2,3, 1, 3, 0, 7, 0.00,60.00,Saturday
11,669610212.8922881
47,80361638.99999988
71,5971238.999999999
346,74390399.99999988
993,69320069.9999999
1017,69320069.9999999
1497,478107355.30489268
1533,28597212.921243654
1557,28597212.921243654
2228,1610802.6499783518
2366,1264062.7385209483
4114,70543188.65003999
4126,21667540.1877892
4162,14199365.105798258
4222,0.0
4280,446815493.33330288
4445,448246079.6451281
4483,959019.2589670352
2,3, 1, 3, 0, 8, 0.00,60.00,Saturday
11,461914471.35832479
47,83800926.72033109
71,9410526.72033122
346,74390399.99999988
993,73192139.99999988
1017,73192139.99999988
1497,410685821.53947177
1533,28597212.921243654
1557,28597212.921243654
2228,4211641.119824924
2366,1751048.9708025009
4114,54892974.71740687
4126,16522251.99196114
4162,14199365.10579826
4222,0.0
4280,245334481.36083234
4445,380337559.6474256
4483,482307.4399297673
2,3, 1, 3, 0, 9, 0.00,60.00,Saturday
11,421245531.9402281
47,100676854.6363982
71,26286454.63639835
346,74390399.99999988
993,90883619.99999987
1017,90883619.99999987
1497,328366168.379212
1533,285108.16507584266
1557,285108.16507584266
2228,5003612.131727556
2366,2045515.7060846687
4114,46457865.4883278
4126,16519577.605455209
4162,14199365.10579826
4222,0.0
4280,177867200.0310262
4445,326035544.5080515
4483,356379.6527484182
2,3, 1, 3, 0,10, 0.00,60.00,Saturday
11,404133374.969734
47,118178927.11860773
71,43788527.11860786
346,74390399.99999988
993,114116039.99999988
1017,114116039.99999988
1497,251865783.44319485
1533,285108.16507584266
1557,285108.16507584266
2228,4829482.737735628
2366,2412808.7140539495
4114,40132546.676010418
4126,16563811.901413594
4162,14199365.10579826
4222,0.0
4280,126604449.47348756
4445,249167866.56406505
4483,271928.9638927384
2,3, 1, 3, 0,11, 0.00,60.00,Saturday
11,350965142.1512211
47,116782230.60511342
71,63840630.60511344
346,52941599.9999999
993,115899659.99999997
1017,115899659.99999997
1497,195255779.95214925
1533,513194.69713651677
1557,513194.69713651677
2228,9081938.631077404
2366,2823637.298472461
4114,36106946.35239245
4126,16654880.550296182
4162,14199365.105798258
4222,0.0
4280,72866473.1100016
4445,191918947.9565403
4483,227893.45263635327
2,3, 1, 3, 0,12, 0.00,60.00,Saturday
11,316812208.9105656
47,116857152.56278825
71,63915552.56278825
346,52941599.9999999
993,115899659.99999997
1017,115899659.99999997
1497,164269052.19644017
1533,11952079.865633984
1557,11952079.865633984
2228,10565653.753030498
2366,3375132.2843011559
4114,33940455.85802251
4126,16913780.59806455
4162,14199365.10579826
4222,0.0
4280,39339776.907845448
4445,148941840.04650504
4483,209509.82887901876
2,3, 1, 3, 0,13, 0.00,60.00,Saturday
11,300164425.83254137
47,113517647.93950053
71,60576047.93950054
346,52941599.9999999
993,114247259.99999997
1017,114247259.99999997
1497,139131301.311928
1533,11952079.865633984
1557,11952079.865633984
2228,11604465.371533364
2366,3683610.576830728
4114,33022848.257808836
4126,16983760.881333334
4162,14199365.10579826
4222,303931.1017420684
4280,27264653.500354604
4445,123495610.8694633
4483,203619.6616020111
2,3, 1, 3, 0,14, 0.00,60.00,Saturday
11,296750567.4546731
47,113180799.84266123
71,60239199.84266125
346,52941599.9999999
993,114247259.99999997
1017,114247259.99999997
1497,118231446.625599
1533,513194.69713651677
1557,513194.69713651677
2228,12659333.11240627
2366,3698531.295500812
4114,32801838.78292148
4126,17094059.372212858
4162,14199365.10579826
4222,1352634.3650733517
4280,22306654.18420949
4445,114019720.63296168
4483,202047.16740144616
2,3, 1, 3, 0,15, 0.00,60.00,Saturday
11,290805174.58525118
47,113162497.29354179
71,60220897.29354182
346,52941599.9999999
993,114247259.99999997
1017,114247259.99999997
1497,98395403.89756827
1533,427662.2476137639
1557,427662.2476137639
2228,9783264.324011073
2366,3054531.51252356
4114,32999346.99086649
4126,17565217.788054009
4162,14199365.10579826
4222,2134121.812868018
4280,18278585.726000057
4445,94913210.13743095
4483,200098.4379638381
2,3, 1, 3, 0,16, 0.00,60.00,Saturday
11,288150112.12352159
47,113409630.97942034
71,60468030.97942036
346,52941599.9999999
993,114247259.99999997
1017,114247259.99999997
1497,83227433.43550994
1533,427662.2476137639
1557,427662.2476137639
2228,9451040.536398577
2366,3009625.2627549145
4114,33002864.57035561
4126,17869755.122730037
4162,14199365.10579826
4222,1603116.0903689839
4280,16237202.089309069
4445,79790145.92514125
4483,198997.8576690658
2,3, 1, 3, 0,17, 0.00,60.00,Saturday
11,292696096.2581226
47,118452784.37378162
71,65511184.373781647
346,52941599.9999999
993,114247259.99999997
1017,114247259.99999997
1497,117015372.39312685
1533,29024875.168857416
1557,29024875.168857416
2228,9106533.45356172
2366,3007236.615074495
4114,32935210.59699301
4126,17967780.23825159
4162,14199365.10579826
4222,100073.73214134058
4280,17655020.291239215
4445,84983260.60919494
4483,199213.81040574134
2,3, 1, 3, 0,18, 0.00,60.00,Saturday
11,290492299.9406207
47,111937382.99999996
71,64017782.99999998
346,47919599.99999992
993,113145659.99999997
1017,113145659.99999997
1497,141977086.0329225
1533,28597212.921243654
1557,28597212.921243654
2228,9276855.197588116
2366,2931654.690566116
4114,32851953.260521696
4126,17356540.120445119
4162,14199365.10579826
4222,0.0
4280,23079041.89215577
4445,110448218.42111272
4483,201406.5903552384
2,3, 1, 3, 0,19, 0.00,60.00,Saturday
11,314233522.73322269
47,128942549.99999987
71,38125349.999999988
346,90817199.99999984
993,125066699.99999988
1017,125066699.99999988
1497,175822245.11767284
1533,28597212.921243654
1557,28597212.921243654
2228,9295195.887151242
2366,2782700.022035378
4114,31316452.623740969
4126,16519639.077601962
4162,14199365.10579826
4222,0.0
4280,19405517.24482663
4445,144442332.1743938
4483,207106.9775041768
2,3, 1, 3, 0,20, 0.00,60.00,Saturday
11,318201017.2027033
47,142745273.9999998
71,23329673.999999994
346,119415599.9999998
993,138176819.9999998
1017,138176819.9999998
1497,171602400.08584938
1533,0.0
1557,0.0
2228,7179160.149318726
2366,2330001.0582802726
4114,28809972.724489765
4126,14487417.026481724
4162,14199365.10579826
4222,0.0
4280,1077600.796245496
4445,169272399.02756913
4483,212189.5326496619
2,3, 1, 3, 0,21, 0.00,60.00,Saturday
11,344564351.8386841
47,157044473.99999977
71,23329673.999999994
346,133714799.99999979
993,152476019.99999977
1017,152476019.99999977
1497,203333023.5731661
1533,0.0
1557,0.0
2228,5612968.954535842
2366,2285785.614614258
4114,28738527.01173757
4126,14487417.026481724
4162,14199365.10579826
4222,0.0
4280,473113.76487906629
4445,201047237.95855189
4483,219248.1075319805
2,3, 1, 3, 0,22, 0.00,60.00,Saturday
11,287231428.4180132
47,127949597.9999998
71,8533997.999999999
346,119415599.9999998
993,122688539.9999998
1017,122688539.9999998
1497,263041449.7490264
1533,0.0
1557,0.0
2228,4166760.677801703
2366,1709328.0096152479
4114,29057245.9979147
4126,14487417.026481724
4162,14199365.10579826
4222,0.0
4280,3119633.8320856739
4445,261332121.73941116
4483,249649.91021142493