Program Version,EnergyPlus, Version 9.0.1-bb7ca4f0da, YMD=2019.12.17 17:22
1,5,Environment Title[],Latitude[deg],Longitude[deg],Time Zone[],Elevation[m]
2,8,Day of Simulation[],Month[],Day of Month[],DST Indicator[1=yes 0=no],Hour[],StartMinute[],EndMinute[],DayType
3,5,Cumulative Day of Simulation[],Month[],Day of Month[],DST Indicator[1=yes 0=no],DayType  ! When Daily Meters Requested
4,2,Cumulative Days of Simulation[],Month[]  ! When Monthly Meters Requested
5,1,Cumulative Days of Simulation[] ! When Run Period Meters Requested
6,1,Calendar Year of Simulation[] ! When Annual Meters Requested
11,1,Electricity:Facility [J] !Hourly
1557,1,Receptacle:InteriorEquipment:Gas [J] !Hourly
4171,1,ProcessMotors:Fans:Electricity [J] !Hourly
4122,1,Fans:Electricity [J] !Hourly
2366,1,WaterSystems:Gas [J] !Hourly
47,1,InteriorLights:Electricity [J] !Hourly
993,1,InteriorEquipment:Electricity [J] !Hourly
4480,1,Pumps:Electricity [J] !Hourly
2228,1,WaterSystems:Electricity [J] !Hourly
4244,1,Heating:Electricity [J] !Hourly
4355,1,Cooling:Electricity [J] !Hourly
1497,1,Gas:Facility [J] !Hourly
1533,1,InteriorEquipment:Gas [J] !Hourly
4231,1,Heating:Gas [J] !Hourly
1017,1,Receptacle:InteriorEquipment:Electricity [J] !Hourly
71,1,ComplianceLtg:InteriorLights:Electricity [J] !Hourly
346,1,NonComplianceLtg:InteriorLights:Electricity [J] !Hourly
4134,1,General:Fans:Electricity [J] !Hourly
End of Data Dictionary
1,SANTA-MARIA_723940_CZ2010,  34.92,-120.47,  -8.00,  77.00
2,1, 1, 1, 0, 1, 0.00,60.00,Holiday
11,55711119.65986499
47,24156278.99999996
71,4835078.999999999
346,19321199.999999968
993,18722069.99999997
1017,18722069.99999997
1497,1043088.8974549362
1533,0.0
1557,0.0
2228,799633.6962492867
2366,1043088.8974549362
4122,12033136.96361573
4134,8488078.333418433
4171,3545058.6301972989
4231,0.0
4244,0.0
4355,0.0
4480,0.0
2,1, 1, 1, 0, 2, 0.00,60.00,Holiday
11,56510617.03543462
47,24156278.99999996
71,4835078.999999999
346,19321199.999999968
993,18722069.99999997
1017,18722069.99999997
1497,1042942.5953074574
1533,0.0
1557,0.0
2228,1599131.071818911
2366,1042942.5953074574
4122,12033136.96361573
4134,8488078.333418433
4171,3545058.6301972989
4231,0.0
4244,0.0
4355,0.0
4480,0.0
2,1, 1, 1, 0, 3, 0.00,60.00,Holiday
11,56517948.91734579
47,24156278.99999996
71,4835078.999999999
346,19321199.999999968
993,18722069.99999997
1017,18722069.99999997
1497,1471573.882792827
1533,0.0
1557,0.0
2228,1598948.337833819
2366,1303635.6994489548
4122,12040651.579512002
4134,8488078.333418433
4171,3545058.6301972989
4231,167938.18334387215
4244,0.0
4355,0.0
4480,0.0
2,1, 1, 1, 0, 4, 0.00,60.00,Holiday
11,56610660.39986111
47,24156278.99999996
71,4835078.999999999
346,19321199.999999968
993,18722069.99999997
1017,18722069.99999997
1497,3869206.980716946
1533,0.0
1557,0.0
2228,1585676.4422681807
2366,1037500.186553645
4122,12146634.957592965
4134,8488078.333418433
4171,3545058.6301972989
4231,2831706.794163301
4244,0.0
4355,0.0
4480,0.0
2,1, 1, 1, 0, 5, 0.00,60.00,Holiday
11,57985701.15573081
47,24156278.99999996
71,4835078.999999999
346,19321199.999999968
993,18722069.99999997
1017,18722069.99999997
1497,11904833.932561886
1533,0.0
1557,0.0
2228,792788.6565818845
2366,1037742.5706137177
4122,14309914.410015079
4134,10381022.128404789
4171,3545058.6301972989
4231,10867091.361948166
4244,55.08322807547527
4355,0.0
4480,4594.005905803659
2,1, 1, 1, 0, 6, 0.00,60.00,Holiday
11,118770902.83288478
47,52754678.99999992
71,4835078.999999999
346,47919599.99999992
993,47320469.999999929
1017,47320469.999999929
1497,65768120.45534243
1533,0.0
1557,0.0
2228,1585867.051143359
2366,1305713.4754977956
4122,17069767.44217718
4134,13200843.539675503
4171,3545058.6301972989
4231,64462406.97984463
4244,9952.63219351319
4355,0.0
4480,30166.707370754764
2,1, 1, 1, 0, 7, 0.00,60.00,Holiday
11,180978496.44570688
47,74203478.99999988
71,4835078.999999999
346,69368399.9999999
993,68769269.9999999
1017,68769269.9999999
1497,542107193.4200063
1533,28597212.921243654
1557,28597212.921243654
2228,1599113.9709965676
2366,1042937.6143559062
4122,36367667.00608795
4134,15573055.331696023
4171,3545058.6301972989
4231,512467042.8844067
4244,8427.578006145937
4355,0.0
4480,30538.890616365145
2,1, 1, 1, 0, 8, 0.00,60.00,Holiday
11,172063305.71433748
47,74190137.78121677
71,4821737.7812168919
346,69368399.9999999
993,68769269.9999999
1017,68769269.9999999
1497,336693642.5508956
1533,28597212.921243654
1557,28597212.921243654
2228,1639865.9380012076
2366,1323474.5872338312
4122,27425313.196802938
4134,14149728.256483712
4171,3545058.6301972989
4231,306772955.0424181
4244,7874.5632239469509
4355,0.0
4480,30844.235092657997
2,1, 1, 1, 0, 9, 0.00,60.00,Holiday
11,188759640.77526418
47,77715052.05606933
71,8346652.056069458
346,69368399.9999999
993,72641339.99999988
1017,72641339.99999988
1497,615645609.0561278
1533,0.0
1557,0.0
2228,2503066.32884625
2366,1337256.4099948244
4122,34502980.58200995
4134,24176751.008759105
4171,3545058.6301972989
4231,614308352.6461331
4244,96927.76637563302
4355,0.0
4480,1300274.041963024
2,1, 1, 1, 0,10, 0.00,60.00,Holiday
11,177405661.56952227
47,77514199.07520443
71,8145799.075204559
346,69368399.9999999
993,72641339.99999988
1017,72641339.99999988
1497,376333987.926911
1533,0.0
1557,0.0
2228,3397282.8143165528
2366,1350944.5479390664
4122,23601513.27366431
4134,16514483.822945655
4171,3545058.6301972989
4231,374983043.37897196
4244,58317.37966587299
4355,0.0
4480,193009.02667109978
2,1, 1, 1, 0,11, 0.00,60.00,Holiday
11,179242991.48919124
47,76602531.55735249
71,28682931.557352544
346,47919599.99999992
993,74424959.99999996
1017,74424959.99999996
1497,235074840.7388538
1533,0.0
1557,0.0
2228,5880433.529355124
2366,2054737.301000761
4122,22265881.646101715
4134,16357448.856655026
4171,3545058.6301972989
4231,233020103.43785308
4244,31226.34232331832
4355,0.0
4480,37958.41405860284
2,1, 1, 1, 0,12, 0.00,60.00,Holiday
11,176855616.03249947
47,76056925.05234933
71,28137325.052349379
346,47919599.99999992
993,74424959.99999996
1017,74424959.99999996
1497,139737466.1251901
1533,11438885.168497468
1557,11438885.168497468
2228,6003595.843325585
2366,2377673.9105617518
4122,20320566.76253199
4134,16357266.494802813
4171,3545058.6301972989
4231,125920907.0461309
4244,20425.82006619603
4355,0.0
4480,29142.554226409462
2,1, 1, 1, 0,13, 0.00,60.00,Holiday
11,204862885.3862723
47,87564057.30734864
71,39644457.30734867
346,47919599.99999992
993,89913239.99999997
1017,89913239.99999997
1497,57599413.19279846
1533,11438885.168497468
1557,11438885.168497468
2228,7391740.044341361
2366,2451072.0319295439
4122,19954238.468148009
4134,16357266.494802813
4171,3545058.6301972989
4231,43709455.99237145
4244,7546.988217092853
4355,0.0
4480,32062.578217260227
2,1, 1, 1, 0,14, 0.00,60.00,Holiday
11,206169986.55936868
47,88823822.3885566
71,40904222.3885566
346,47919599.99999992
993,89913239.99999997
1017,89913239.99999997
1497,39302478.846907068
1533,0.0
1557,0.0
2228,7392602.495107094
2366,2469898.1327768189
4122,20001184.164686644
4134,16357266.494802813
4171,3545058.6301972989
4231,36832580.714130248
4244,6068.586892654221
4355,0.0
4480,33068.92412570058
2,1, 1, 1, 0,15, 0.00,60.00,Holiday
11,205906832.49581153
47,88939828.71316998
71,41020228.71316999
346,47919599.99999992
993,89913239.99999997
1017,89913239.99999997
1497,46746052.34793042
1533,0.0
1557,0.0
2228,6862174.41676393
2366,2129467.581750053
4122,20152067.398556096
4134,16357266.494802813
4171,3545058.6301972989
4231,44616584.76618037
4244,6687.288546425369
4355,0.0
4480,32834.67877513653
2,1, 1, 1, 0,16, 0.00,60.00,Holiday
11,205912154.10321409
47,89058240.98102904
71,41138640.981029059
346,47919599.99999992
993,89913239.99999997
1017,89913239.99999997
1497,59424038.536783318
1533,0.0
1557,0.0
2228,6639121.359149132
2366,2416167.3369649138
4122,20261158.15222393
4134,16357266.494802813
4171,3545058.6301972989
4231,57007871.1998184
4244,8380.226598278867
4355,0.0
4480,32013.384213730536
2,1, 1, 1, 0,17, 0.00,60.00,Holiday
11,207389659.5546374
47,89629699.11876148
71,41710099.11876149
346,47919599.99999992
993,89913239.99999997
1017,89913239.99999997
1497,92883300.24478773
1533,28597212.921243654
1557,28597212.921243654
2228,7474179.5515576009
2366,2453688.819002742
4122,20331882.16604048
4134,16357266.494802813
4171,3545058.6301972989
4231,61832398.50454133
4244,8928.823444555926
4355,0.0
4480,31729.8948333373
2,1, 1, 1, 0,18, 0.00,60.00,Holiday
11,181349347.90816803
47,78647111.99999994
71,30727511.99999999
346,47919599.99999992
993,74424959.99999996
1017,74424959.99999996
1497,154991953.41718553
1533,28597212.921243654
1557,28597212.921243654
2228,7231931.658266366
2366,2390566.9646695798
4122,20999233.07609496
4134,16357266.494802813
4171,3545058.6301972989
4231,124004173.53127229
4244,16927.930366374625
4355,0.0
4480,29183.243440389408
2,1, 1, 1, 0,19, 0.00,60.00,Holiday
11,231502367.73270867
47,106749035.99999982
71,15931835.999999995
346,90817199.99999984
993,101834279.99999984
1017,101834279.99999984
1497,174965954.37414373
1533,28597212.921243654
1557,28597212.921243654
2228,4706665.588608531
2366,1737960.985969245
4122,18157474.377299534
4134,14491155.438970363
4171,3545058.6301972989
4231,144630780.4669308
4244,25402.81649742505
4355,0.0
4480,29508.950303364953
2,1, 1, 1, 0,20, 0.00,60.00,Holiday
11,260873408.26829276
47,124250678.9999998
71,4835078.999999999
346,119415599.9999998
993,118816469.99999982
1017,118816469.99999982
1497,2276242.085374185
1533,0.0
1557,0.0
2228,5762003.146357284
2366,2027791.529652131
4122,12044256.121935692
4134,8488078.333418433
4171,3545058.6301972989
4231,248450.55572205405
4244,0.0
4355,0.0
4480,0.0
2,1, 1, 1, 0,21, 0.00,60.00,Holiday
11,288226838.1417817
47,138549878.9999998
71,4835078.999999999
346,133714799.99999979
993,133115669.99999979
1017,133115669.99999979
1497,1682035.485178705
1533,0.0
1557,0.0
2228,4528152.178166215
2366,1682035.485178705
4122,12033136.96361573
4134,8488078.333418433
4171,3545058.6301972989
4231,0.0
4244,0.0
4355,0.0
4480,0.0
2,1, 1, 1, 0,22, 0.00,60.00,Holiday
11,258574421.79642693
47,124250678.9999998
71,4835078.999999999
346,119415599.9999998
993,118816469.99999982
1017,118816469.99999982
1497,2023141.5717942685
1533,0.0
1557,0.0
2228,3457412.5109890105
2366,1649426.4030344552
4122,12049860.285438115
4134,8488078.333418433
4171,3545058.6301972989
4231,373715.16875981309
4244,0.0
4355,0.0
4480,0.0
2,1, 1, 1, 0,23, 0.00,60.00,Holiday
11,199543518.67506276
47,95652278.99999984
71,4835078.999999999
346,90817199.99999984
993,90218069.99999985
1017,90218069.99999985
1497,1323434.9032583205
1533,0.0
1557,0.0
2228,1640032.711447195
2366,1323434.9032583205
4122,12033136.96361573
4134,8488078.333418433
4171,3545058.6301972989
4231,0.0
4244,0.0
4355,0.0
4480,0.0
2,1, 1, 1, 0,24, 0.00,60.00,Holiday
11,113693963.46981129
47,52754678.99999992
71,4835078.999999999
346,47919599.99999992
993,47320469.999999929
1017,47320469.999999929
1497,1037691.0660706223
1533,0.0
1557,0.0
2228,1585677.5061955937
2366,1037691.0660706223
4122,12033136.96361573
4134,8488078.333418433
4171,3545058.6301972989
4231,0.0
4244,0.0
4355,0.0
4480,0.0
2,2, 1, 2, 0, 1, 0.00,60.00,Friday
11,55691438.87689258
47,24156278.99999996
71,4835078.999999999
346,19321199.999999968
993,18722069.99999997
1017,18722069.99999997
1497,1029851.7967931263
1533,0.0
1557,0.0
2228,779952.9132768739
2366,1029851.7967931263
4122,12033136.96361573
4134,8488078.333418433
4171,3545058.6301972989
4231,0.0
4244,0.0
4355,0.0
4480,0.0
2,2, 1, 2, 0, 2, 0.00,60.00,Friday
11,55697815.51956721
47,24156278.99999996
71,4835078.999999999
346,19321199.999999968
993,18722069.99999997
1017,18722069.99999997
1497,1035033.7569113185
1533,0.0
1557,0.0
2228,786329.5559515023
2366,1035033.7569113185
4122,12033136.96361573
4134,8488078.333418433
4171,3545058.6301972989
4231,0.0
4244,0.0
4355,0.0
4480,0.0
2,2, 1, 2, 0, 3, 0.00,60.00,Friday
11,56484230.10193407
47,24156278.99999996
71,4835078.999999999
346,19321199.999999968
993,18722069.99999997
1017,18722069.99999997
1497,1293649.4786754994
1533,0.0
1557,0.0
2228,1572744.1383183627
2366,1293649.4786754994
4122,12033136.96361573
4134,8488078.333418433
4171,3545058.6301972989
4231,0.0
4244,0.0
4355,0.0
4480,0.0
2,2, 1, 2, 0, 4, 0.00,60.00,Friday
11,55691390.15278298
47,24156278.99999996
71,4835078.999999999
346,19321199.999999968
993,18722069.99999997
1017,18722069.99999997
1497,1029249.7432287622
1533,0.0
1557,0.0
2228,779904.1891672686
2366,1029249.7432287622
4122,12033136.96361573
4134,8488078.333418433
4171,3545058.6301972989
4231,0.0
4244,0.0
4355,0.0
4480,0.0
2,2, 1, 2, 0, 5, 0.00,60.00,Friday
11,55691485.26696418
47,24156278.99999996
71,4835078.999999999
346,19321199.999999968
993,18722069.99999997
1017,18722069.99999997
1497,1029277.609129182
1533,0.0
1557,0.0
2228,779999.3033484755
2366,1029277.609129182
4122,12033136.96361573
4134,8488078.333418433
4171,3545058.6301972989
4231,0.0
4244,0.0
4355,0.0
4480,0.0
2,2, 1, 2, 0, 6, 0.00,60.00,Friday
11,118446430.93491152
47,53890838.99999992
71,5971238.999999999
346,47919599.99999992
993,47871269.999999929
1017,47871269.999999929
1497,134410098.54448993
1533,0.0
1557,0.0
2228,780057.0485695757
2366,1036372.2377880621
4122,15256983.149794542
4134,11711924.519597244
4171,3545058.6301972989
4231,133373726.3067019
4244,25656.428964437397
4355,507700.0390922921
4480,113925.2684907125
2,2, 1, 2, 0, 7, 0.00,60.00,Friday
11,185987765.29395635
47,80361638.99999988
71,5971238.999999999
346,74390399.99999988
993,69320069.9999999
1017,69320069.9999999
1497,663426937.0743623
1533,28597212.921243654
1557,28597212.921243654
2228,780078.6690264891
2366,1034161.3936963966
4122,34343884.5171618
4134,22877459.10025756
4171,3545058.6301972989
4231,633795562.7594223
4244,94154.77047024113
4355,0.0
4480,1087938.3372979828
2,2, 1, 2, 0, 8, 0.00,60.00,Friday
11,206221053.9248097
47,95736773.03424642
71,21346373.03424654
346,74390399.99999988
993,83139479.99999988
1017,83139479.99999988
1497,426193036.4163056
1533,28882321.086319496
1557,28882321.086319496
2228,3428618.437982139
2366,1686766.0868993714
4122,23682879.546708067
4134,16416358.257569984
4171,3545058.6301972989
4231,395623949.2430867
4244,62670.30984763659
4355,0.0
4480,170632.5960254349
2,2, 1, 2, 0, 9, 0.00,60.00,Friday
11,262588488.13660909
47,123301880.11701077
71,48911480.11701091
346,74390399.99999988
993,112981499.99999987
1017,112981499.99999987
1497,242741223.03921164
1533,285108.16507584266
1557,285108.16507584266
2228,4619741.001129221
2366,2447184.906819123
4122,21606517.710093086
4134,16357266.494802813
4171,3545058.6301972989
4231,240008929.96731667
4244,37118.860653525495
4355,0.0
4480,41730.44772247743
2,2, 1, 2, 0,10, 0.00,60.00,Friday
11,320278870.00770649
47,149050442.72124208
71,74660042.72124213
346,74390399.99999988
993,143958059.99999995
1017,143958059.99999995
1497,152091075.71070547
1533,285108.16507584266
1557,285108.16507584266
2228,6089614.765147796
2366,2929512.672004137
4122,21130824.64544645
4134,16408308.805495225
4171,3545058.6301972989
4231,148876454.8736255
4244,20992.315643290087
4355,0.0
4480,28935.56022677054
2,2, 1, 2, 0,11, 0.00,60.00,Friday
11,277703127.2934592
47,125188363.29917231
71,72246763.29917234
346,52941599.9999999
993,122509259.99999996
1017,122509259.99999996
1497,130153012.37385036
1533,513194.69713651677
1557,513194.69713651677
2228,8935916.453836604
2366,3112862.3598314186
4122,21023270.996769217
4134,16417764.09054822
4171,3545058.6301972989
4231,126526955.31688242
4244,17435.091798843314
4355,0.0
4480,28881.45188218618
2,2, 1, 2, 0,12, 0.00,60.00,Friday
11,278890197.54554018
47,124978294.18429598
71,72036694.18429601
346,52941599.9999999
993,122509259.99999996
1017,122509259.99999996
1497,106938496.36860568
1533,11952079.865633984
1557,11952079.865633984
2228,11024536.77126675
2366,4104736.340904832
4122,20333416.48336292
4134,16632248.013854009
4171,3545058.6301972989
4231,90881680.16206686
4244,15494.71841496198
4355,0.0
4480,29195.38819949454
2,2, 1, 2, 0,13, 0.00,60.00,Friday
11,279899505.54952058
47,124361511.6195415
71,71419911.61954151
346,52941599.9999999
993,122509259.99999996
1017,122509259.99999996
1497,78056446.75913807
1533,11952079.865633984
1557,11952079.865633984
2228,12717994.72267369
2366,4562743.189544592
4122,20269081.22758939
4134,16724022.597392094
4171,3545058.6301972989
4231,61541623.70395948
4244,11018.456202046225
4355,0.0
4480,30639.523513975597
2,2, 1, 2, 0,14, 0.00,60.00,Friday
11,280014535.3216852
47,124626954.48958811
71,71685354.48958813
346,52941599.9999999
993,122509259.99999996
1017,122509259.99999996
1497,40494483.8744014
1533,513194.69713651677
1557,513194.69713651677
2228,12353612.565966946
2366,4206627.215223611
4122,20485368.417538894
4134,16940309.787341596
4171,3545058.6301972989
4231,35774661.96204127
4244,6405.120993686097
4355,0.0
4480,32934.727597626974
2,2, 1, 2, 0,15, 0.00,60.00,Friday
11,278856888.1203293
47,124769888.82827476
71,71828288.82827477
346,52941599.9999999
993,122509259.99999996
1017,122509259.99999996
1497,18070511.663596315
1533,427662.2476137639
1557,427662.2476137639
2228,10007039.214523307
2366,3614910.4448275307
4122,21131372.001751245
4134,17505016.753665098
4171,3545058.6301972989
4231,14027938.971155024
4244,2511.57219871507
4355,401473.67964544447
4480,35342.82393585163
2,2, 1, 2, 0,16, 0.00,60.00,Friday
11,278596160.48383268
47,124741390.9462389
71,71799790.94623894
346,52941599.9999999
993,122509259.99999996
1017,122509259.99999996
1497,14696037.470846124
1533,427662.2476137639
1557,427662.2476137639
2228,9390207.51977578
2366,3349180.002674053
4122,21632120.883811095
4134,18029275.406205898
4171,3545058.6301972989
4231,10919195.220558308
4244,1954.9805003206873
4355,285512.089702078
4480,35714.06380452316
2,2, 1, 2, 0,17, 0.00,60.00,Friday
11,282710654.16970399
47,129738908.7207265
71,76797308.72072655
346,52941599.9999999
993,122509259.99999996
1017,122509259.99999996
1497,55682310.57236084
1533,29024875.168857416
1557,29024875.168857416
2228,9041678.023467578
2366,3416103.176983498
4122,21382423.85106806
4134,17837365.220870764
4171,3545058.6301972989
4231,23241332.22651994
4244,4161.144698537413
4355,0.0
4480,34222.42974325215
2,2, 1, 2, 0,18, 0.00,60.00,Friday
11,271920763.76162007
47,123776342.99999996
71,70834742.99999997
346,52941599.9999999
993,118102859.99999997
1017,118102859.99999997
1497,92972318.02344258
1533,29024875.168857416
1557,29024875.168857416
2228,9239573.007999937
2366,3466730.572317599
4122,20760320.616965929
4134,17204274.99978575
4171,3545058.6301972989
4231,60480712.28226757
4244,10763.589982981895
4355,0.0
4480,30903.54667120565
2,2, 1, 2, 0,19, 0.00,60.00,Friday
11,307789278.6689377
47,143344268.99999986
71,47505068.99999999
346,95839199.99999984
993,135564839.99999989
1017,135564839.99999989
1497,148303890.3616802
1533,28597212.921243654
1557,28597212.921243654
2228,8732112.804255467
2366,2932337.4233265297
4122,20098202.221797106
4134,16553143.591599808
4171,3545058.6301972989
4231,116774340.01711005
4244,20907.361125062398
4355,0.0
4480,28947.281760158578
2,2, 1, 2, 0,20, 0.00,60.00,Friday
11,363100306.9204598
47,171942668.99999974
71,47505068.99999999
346,124437599.9999998
993,164163239.99999974
1017,164163239.99999974
1497,140765633.9138357
1533,0.0
1557,0.0
2228,6995380.856292485
2366,2521455.947716304
4122,19944198.59008885
4134,16399139.959891554
4171,3545058.6301972989
4231,138244177.9661194
4244,24785.23860983776
4355,0.0
4480,30033.23546891815
2,2, 1, 2, 0,21, 0.00,60.00,Friday
11,376224741.07577726
47,180270629.9999997
71,41533829.999999988
346,138736799.9999998
993,169616699.99999974
1017,169616699.99999974
1497,168145096.85645903
1533,0.0
1557,0.0
2228,6369760.360934385
2366,2477044.77331414
4122,19902325.12500011
4134,16357266.494802813
4171,3545058.6301972989
4231,165668052.0831449
4244,30581.546102558674
4355,0.0
4480,34744.04374041917
2,2, 1, 2, 0,22, 0.00,60.00,Friday
11,294417973.1412224
47,143777915.9999998
71,19340315.999999998
346,124437599.9999998
993,132085079.9999998
1017,132085079.9999998
1497,49893228.73763033
1533,0.0
1557,0.0
2228,4616491.167836336
2366,1716433.7349948029
4122,13899248.01944818
4134,10354189.38925088
4171,3545058.6301972989
4231,48176795.00263552
4244,8625.607739000005
4355,0.0
4480,30612.346199115113
2,2, 1, 2, 0,23, 0.00,60.00,Friday
11,204021923.82024805
47,96788438.99999984
71,5971238.999999999
346,90817199.99999984
993,90768869.99999985
1017,90768869.99999985
1497,57113178.486150998
1533,0.0
1557,0.0
2228,2525573.55397312
2366,1616574.2063152842
4122,13899248.01944818
4134,10354189.38925088
4171,3545058.6301972989
4231,55496604.279835719
4244,9936.15161278754
4355,0.0
4480,29857.09521413154
2,2, 1, 2, 0,24, 0.00,60.00,Friday
11,116321673.39899636
47,52754678.99999992
71,4835078.999999999
346,47919599.99999992
993,47320469.999999929
1017,47320469.999999929
1497,55635270.182850997
1533,0.0
1557,0.0
2228,2307646.0414771756
2366,1050498.5684434325
4122,13899248.01944818
4134,10354189.38925088
4171,3545058.6301972989
4231,54584771.61440757
4244,9772.896442011654
4355,0.0
4480,29857.441629030145
2,3, 1, 3, 0, 1, 0.00,60.00,Saturday
11,56679768.32273771
47,24156278.99999996
71,4835078.999999999
346,19321199.999999968
993,18722069.99999997
1017,18722069.99999997
1497,1333214.1311347904
1533,0.0
1557,0.0
2228,1768282.3591220072
2366,1333214.1311347904
4122,12033136.96361573
4134,8488078.333418433
4171,3545058.6301972989
4231,0.0
4244,0.0
4355,0.0
4480,0.0
2,3, 1, 3, 0, 2, 0.00,60.00,Saturday
11,57371659.487679507
47,24156278.99999996
71,4835078.999999999
346,19321199.999999968
993,18722069.99999997
1017,18722069.99999997
1497,1326465.9780972079
1533,0.0
1557,0.0
2228,2460173.5240638025
2366,1326465.9780972079
4122,12033136.96361573
4134,8488078.333418433
4171,3545058.6301972989
4231,0.0
4244,0.0
4355,0.0
4480,0.0
2,3, 1, 3, 0, 3, 0.00,60.00,Saturday
11,56524223.442888308
47,24156278.99999996
71,4835078.999999999
346,19321199.999999968
993,18722069.99999997
1017,18722069.99999997
1497,1313149.5734395274
1533,0.0
1557,0.0
2228,1612737.4792726
2366,1313149.5734395274
4122,12033136.96361573
4134,8488078.333418433
4171,3545058.6301972989
4231,0.0
4244,0.0
4355,0.0
4480,0.0
2,3, 1, 3, 0, 4, 0.00,60.00,Saturday
11,56603654.45919299
47,24156278.99999996
71,4835078.999999999
346,19321199.999999968
993,18722069.99999997
1017,18722069.99999997
1497,3970947.777016516
1533,0.0
1557,0.0
2228,1585746.6901596855
2366,1039709.1414789201
4122,12139558.769033337
4134,8488078.333418433
4171,3545058.6301972989
4231,2931238.6355375957
4244,0.0
4355,0.0
4480,0.0
2,3, 1, 3, 0, 5, 0.00,60.00,Saturday
11,56136956.86613985
47,24156278.99999996
71,4835078.999999999
346,19321199.999999968
993,18722069.99999997
1017,18722069.99999997
1497,13205572.810143415
1533,0.0
1557,0.0
2228,792960.9204071129
2366,1040012.6579509832
4122,12465646.945732773
4134,8488078.333418433
4171,3545058.6301972989
4231,12165560.152192433
4244,0.0
4355,0.0
4480,0.0
2,3, 1, 3, 0, 6, 0.00,60.00,Saturday
11,118216528.87149072
47,52754678.99999992
71,4835078.999999999
346,47919599.99999992
993,47320469.999999929
1017,47320469.999999929
1497,188707200.9973363
1533,0.0
1557,0.0
2228,1586044.1595620043
2366,1308430.5356892292
4122,16322770.6782209
4134,12099715.692606092
4171,3545058.6301972989
4231,187398770.46164707
4244,31824.89134172296
4355,78134.28081709345
4480,122605.86154904534
2,3, 1, 3, 0, 7, 0.00,60.00,Saturday
11,198017066.69463635
47,80361638.99999988
71,5971238.999999999
346,74390399.99999988
993,69320069.9999999
1017,69320069.9999999
1497,1107286087.6646195
1533,28597212.921243654
1557,28597212.921243654
2228,1599210.6305753468
2366,1049873.5202452983
4122,45066098.60582696
4134,21145036.23376017
4171,3545058.6301972989
4231,1077639001.2231303
4244,122317.66393061471
4355,0.0
4480,1547730.7943035472
2,3, 1, 3, 0, 8, 0.00,60.00,Saturday
11,193394548.21682779
47,83715038.65489565
71,9324638.654895762
346,74390399.99999988
993,73192139.99999988
1017,73192139.99999988
1497,794199949.4772437
1533,28597212.921243654
1557,28597212.921243654
2228,3588611.0921080724
2366,1984340.190038038
4122,31959522.94478206
4134,16517223.239605045
4171,3545058.6301972989
4231,763618396.365962
4244,102629.71606852685
4355,0.0
4480,836605.808973504
2,3, 1, 3, 0, 9, 0.00,60.00,Saturday
11,225093227.56208415
47,101418989.98109964
71,27028589.98109977
346,74390399.99999988
993,90883619.99999987
1017,90883619.99999987
1497,573797158.2468268
1533,285108.16507584266
1557,285108.16507584266
2228,5270164.714480166
2366,2048167.5049189088
4122,27031479.165117608
4134,16357266.494802813
4171,3545058.6301972989
4231,571463882.5768319
4244,85028.71311740397
4355,0.0
4480,403944.98826936897
2,3, 1, 3, 0,10, 0.00,60.00,Saturday
11,262102098.12515456
47,118909640.10915515
71,44519240.10915526
346,74390399.99999988
993,114116039.99999988
1017,114116039.99999988
1497,382498964.86956557
1533,285108.16507584266
1557,285108.16507584266
2228,5138708.513127931
2366,2327906.714176623
4122,23742495.27148431
4134,16408096.039234257
4171,3545058.6301972989
4231,379885949.99031308
4244,57541.79565309986
4355,0.0
4480,137672.43573402009
2,3, 1, 3, 0,11, 0.00,60.00,Saturday
11,265287045.31788687
47,117683717.63091207
71,64742117.63091208
346,52941599.9999999
993,115899659.99999997
1017,115899659.99999997
1497,281697773.7626463
1533,513194.69713651677
1557,513194.69713651677
2228,9052772.460815909
2366,2800832.1751489706
4122,22556836.668060606
4134,16487933.16650144
4171,3545058.6301972989
4231,278383746.89036086
4244,40586.21336672771
4355,0.0
4480,53472.3447315592
2,3, 1, 3, 0,12, 0.00,60.00,Saturday
11,265837129.98319824
47,117776113.35139317
71,64834513.35139318
346,52941599.9999999
993,115899659.99999997
1017,115899659.99999997
1497,218579982.74743099
1533,11952079.865633984
1557,11952079.865633984
2228,10555338.870581009
2366,3524437.357624743
4122,21540064.174487778
4134,16705963.805936933
4171,3545058.6301972989
4231,203103465.52417226
4244,30832.997294858716
4355,0.0
4480,35120.58944149511
2,3, 1, 3, 0,13, 0.00,60.00,Saturday
11,261774518.44766138
47,113962924.48846954
71,61021324.488469559
346,52941599.9999999
993,114247259.99999997
1017,114247259.99999997
1497,177205714.6987792
1533,11952079.865633984
1557,11952079.865633984
2228,11638429.206668497
2366,3697023.1715590015
4122,21257110.54302355
4134,16879756.79637654
4171,3545058.6301972989
4231,161556611.66158623
4244,25438.907084431456
4355,613107.1207013477
4480,30248.181714070775
2,3, 1, 3, 0,14, 0.00,60.00,Saturday
11,264369006.7712204
47,114095575.0810148
71,61153975.08101483
346,52941599.9999999
993,114247259.99999997
1017,114247259.99999997
1497,113121525.96758421
1533,513194.69713651677
1557,513194.69713651677
2228,12649508.810534819
2366,3711826.3623222468
4122,21412175.550251403
4134,17245673.664970049
4171,3545058.6301972989
4231,108896504.90812545
4244,18231.098467732947
4355,1917331.6769613925
4480,28924.553990249267
2,3, 1, 3, 0,15, 0.00,60.00,Saturday
11,262332910.35996197
47,113403832.78956148
71,60462232.789561498
346,52941599.9999999
993,114247259.99999997
1017,114247259.99999997
1497,62169250.63733367
1533,427662.2476137639
1557,427662.2476137639
2228,9867801.47048571
2366,3062757.0134884885
4122,22029554.63889624
4134,17908824.703636275
4171,3545058.6301972989
4231,58678831.37623142
4244,10374.890493055671
4355,2743135.6045256454
4480,30950.965999902095
2,3, 1, 3, 0,16, 0.00,60.00,Saturday
11,261870634.7438643
47,113370237.3655855
71,60428637.365585509
346,52941599.9999999
993,114247259.99999997
1017,114247259.99999997
1497,38489683.30040047
1533,427662.2476137639
1557,427662.2476137639
2228,9625986.227953937
2366,3017262.7590926687
4122,22448642.204668434
4134,18472010.80922262
4171,3545058.6301972989
4231,35044758.29369404
4244,6274.438520307036
4355,2139327.7971720236
4480,32906.70996416308
2,3, 1, 3, 0,17, 0.00,60.00,Saturday
11,263962295.0931961
47,118318439.76377732
71,65376839.763777349
346,52941599.9999999
993,114247259.99999997
1017,114247259.99999997
1497,74130807.79227817
1533,29024875.168857416
1557,29024875.168857416
2228,9232678.92105075
2366,3014824.932572219
4122,21990257.68141485
4134,18415982.811640048
4171,3545058.6301972989
4231,42091107.69084854
4244,7522.9862160990819
4355,133914.9369652922
4480,32220.803771841256
2,3, 1, 3, 0,18, 0.00,60.00,Saturday
11,255249484.4160958
47,111937382.99999996
71,64017782.99999998
346,47919599.99999992
993,113145659.99999997
1017,113145659.99999997
1497,122822389.61274772
1533,28597212.921243654
1557,28597212.921243654
2228,8873194.685418329
2366,2938307.3313916318
4122,21248215.2053286
4134,17577362.32343025
4171,3545058.6301972989
4231,91286869.36011243
4244,15631.656835297461
4355,0.0
4480,29399.868513644153
2,3, 1, 3, 0,19, 0.00,60.00,Saturday
11,283195951.8297808
47,128942549.99999987
71,38125349.999999988
346,90817199.99999984
993,125066699.99999988
1017,125066699.99999988
1497,179504913.39886878
1533,28597212.921243654
1557,28597212.921243654
2228,9205368.152198535
2366,2858845.7958600718
4122,19924207.810536624
4134,16359855.96181102
4171,3545058.6301972989
4231,148048854.68176503
4244,26650.993804521044
4355,0.0
4480,30474.87324124315
2,3, 1, 3, 0,20, 0.00,60.00,Saturday
11,306406548.24040129
47,142745273.9999998
71,23329673.999999994
346,119415599.9999998
993,138176819.9999998
1017,138176819.9999998
1497,134198704.81909377
1533,0.0
1557,0.0
2228,7392205.552628947
2366,2368856.8140104308
4122,18038609.64081724
4134,14491155.438970363
4171,3545058.6301972989
4231,131829848.00508332
4244,23657.502537975444
4355,0.0
4480,29981.5444173347
2,3, 1, 3, 0,21, 0.00,60.00,Saturday
11,333504026.2815797
47,157044473.99999977
71,23329673.999999994
346,133714799.99999979
993,152476019.99999977
1017,152476019.99999977
1497,168315971.64587827
1533,0.0
1557,0.0
2228,5881519.237879875
2366,2190682.0461582436
4122,18037278.23124084
4134,14491155.438970363
4171,3545058.6301972989
4231,166125289.59972004
4244,30672.823011360564
4355,0.0
4480,34061.98944780597
2,3, 1, 3, 0,22, 0.00,60.00,Saturday
11,273373021.0018049
47,127949597.9999998
71,8533997.999999999