Program Version,EnergyPlus, Version 9.0.1-bb7ca4f0da, YMD=2019.12.18 16:34
1,5,Environment Title[],Latitude[deg],Longitude[deg],Time Zone[],Elevation[m]
2,8,Day of Simulation[],Month[],Day of Month[],DST Indicator[1=yes 0=no],Hour[],StartMinute[],EndMinute[],DayType
3,5,Cumulative Day of Simulation[],Month[],Day of Month[],DST Indicator[1=yes 0=no],DayType  ! When Daily Meters Requested
4,2,Cumulative Days of Simulation[],Month[]  ! When Monthly Meters Requested
5,1,Cumulative Days of Simulation[] ! When Run Period Meters Requested
6,1,Calendar Year of Simulation[] ! When Annual Meters Requested
2228,1,WaterSystems:Electricity [J] !Hourly
4471,1,Pumps:Electricity [J] !Hourly
4350,1,Cooling:Electricity [J] !Hourly
2366,1,WaterSystems:Gas [J] !Hourly
11,1,Electricity:Facility [J] !Hourly
47,1,InteriorLights:Electricity [J] !Hourly
993,1,InteriorEquipment:Electricity [J] !Hourly
4114,1,Fans:Electricity [J] !Hourly
4235,1,Heating:Electricity [J] !Hourly
1533,1,InteriorEquipment:Gas [J] !Hourly
1497,1,Gas:Facility [J] !Hourly
1017,1,Receptacle:InteriorEquipment:Electricity [J] !Hourly
4222,1,Heating:Gas [J] !Hourly
71,1,ComplianceLtg:InteriorLights:Electricity [J] !Hourly
1557,1,Receptacle:InteriorEquipment:Gas [J] !Hourly
346,1,NonComplianceLtg:InteriorLights:Electricity [J] !Hourly
4126,1,General:Fans:Electricity [J] !Hourly
4162,1,ProcessMotors:Fans:Electricity [J] !Hourly
End of Data Dictionary
1,FRESNO_723890_CZ2010,  36.78,-119.72,  -8.00, 102.00
2,1, 1, 1, 0, 1, 0.00,60.00,Holiday
11,66342147.0493177
47,24156278.99999996
71,4835078.999999999
346,19321199.999999968
993,18722069.99999997
1017,18722069.99999997
1497,1043185.0765203257
1533,0.0
1557,0.0
2228,806091.6039073619
2366,1043185.0765203257
4114,22657706.445410395
4126,8458341.339612136
4162,14199365.105798258
4222,0.0
4235,0.0
4350,0.0
4471,0.0
2,1, 1, 1, 0, 2, 0.00,60.00,Holiday
11,67148044.35320765
47,24156278.99999996
71,4835078.999999999
346,19321199.999999968
993,18722069.99999997
1017,18722069.99999997
1497,1043174.1588051543
1533,0.0
1557,0.0
2228,1611988.9077973183
2366,1043174.1588051543
4114,22657706.445410395
4126,8458341.339612136
4162,14199365.105798258
4222,0.0
4235,0.0
4350,0.0
4471,0.0
2,1, 1, 1, 0, 3, 0.00,60.00,Holiday
11,68985278.0012111
47,24156278.99999996
71,4835078.999999999
346,19321199.999999968
993,18722069.99999997
1017,18722069.99999997
1497,1509914.6026264535
1533,0.0
1557,0.0
2228,1611778.9924058642
2366,1304006.443268303
4114,24445336.24698086
4126,10245971.141182604
4162,14199365.105798258
4222,205908.15935815048
4235,36.86588510329839
4350,0.0
4471,49776.89593932417
2,1, 1, 1, 0, 4, 0.00,60.00,Holiday
11,71047367.24772322
47,24156278.99999996
71,4835078.999999999
346,19321199.999999968
993,18722069.99999997
1017,18722069.99999997
1497,2172447.785214846
1533,0.0
1557,0.0
2228,1598490.9348529508
2366,1037717.1630461653
4114,26470851.216140555
4126,12255312.363479786
4162,14199365.105798258
4222,1134730.6221686807
4235,141.84019672736827
4350,0.0
4471,99534.25653305192
2,1, 1, 1, 0, 5, 0.00,60.00,Holiday
11,70279538.15782386
47,24156278.99999996
71,4835078.999999999
346,19321199.999999968
993,18722069.99999997
1017,18722069.99999997
1497,3638706.2651811519
1533,0.0
1557,0.0
2228,799294.4801356123
2366,1037964.4281492683
4114,26502113.428084427
4126,12255312.363479786
4162,14199365.105798258
4222,2600741.837031883
4235,285.202077668049
4350,0.0
4471,99496.04752619646
2,1, 1, 1, 0, 6, 0.00,60.00,Holiday
11,131218939.45065457
47,52754678.99999992
71,4835078.999999999
346,47919599.99999992
993,47320469.999999929
1017,47320469.999999929
1497,64675225.60466185
1533,0.0
1557,0.0
2228,1598575.6757733413
2366,1305922.243426608
4114,29445296.268621878
4126,15231887.122197122
4162,14199365.105798258
4222,63369303.36123524
4235,465.2221249665057
4350,0.0
4471,99453.28413442523
2,1, 1, 1, 0, 7, 0.00,60.00,Holiday
11,187794761.77660675
47,74203478.99999988
71,4835078.999999999
346,69368399.9999999
993,68769269.9999999
1017,68769269.9999999
1497,375021050.3954277
1533,28597212.921243654
1557,28597212.921243654
2228,1080356.4761062028
2366,1043142.7665832371
4114,43626380.6276637
4126,15203983.033004731
4162,14199365.105798258
4222,345380694.70760086
4235,802.3383860827719
4350,0.0
4471,114473.33445098563
2,1, 1, 1, 0, 8, 0.00,60.00,Holiday
11,180334594.05140216
47,74199275.8733456
71,4830875.873345729
346,69368399.9999999
993,68769269.9999999
1017,68769269.9999999
1497,225784026.34739117
1533,28597212.921243654
1557,28597212.921243654
2228,2199070.5546463078
2366,1323822.586056139
4114,35066715.33382341
4126,14287472.942453269
4162,14199365.105798258
4222,195862990.84009133
4235,891.6796290697159
4350,0.0
4471,99370.60995785945
2,1, 1, 1, 0, 9, 0.00,60.00,Holiday
11,200304083.24480547
47,77856131.73071948
71,8487731.7307196
346,69368399.9999999
993,72641339.99999988
1017,72641339.99999988
1497,572803108.0324023
1533,0.0
1557,0.0
2228,2524014.3187155046
2366,1337700.2541213977
4114,46133422.440684888
4126,25500150.229031598
4162,14199365.105798258
4222,571465407.7782809
4235,80516.91675659476
4350,0.0
4471,1068657.8379290689
2,1, 1, 1, 0,10, 0.00,60.00,Holiday
11,191139682.29381637
47,77815142.59768412
71,8446742.59768425
346,69368399.9999999
993,72641339.99999988
1017,72641339.99999988
1497,500645446.5385367
1533,0.0
1557,0.0
2228,2568549.808736547
2366,1351477.817100612
4114,37713951.344488818
4126,16643060.408924189
4162,14199365.105798258
4222,499293968.72143617
4235,59634.38860022304
4350,0.0
4471,341064.1543067632
2,1, 1, 1, 0,11, 0.00,60.00,Holiday
11,197940408.90910227
47,78140587.82625164
71,30220987.82625169
346,47919599.99999992
993,74424959.99999996
1017,74424959.99999996
1497,453733295.77691069
1533,0.0
1557,0.0
2228,5931735.386430089
2366,2160575.407815403
4114,39169823.24777362
4126,16519577.605455207
4162,14199365.105798258
4222,451572720.3690953
4235,41784.476278128386
4350,0.0
4471,231517.9723688645
2,1, 1, 1, 0,12, 0.00,60.00,Holiday
11,197730541.30617187
47,78083940.03337977
71,30164340.03337981
346,47919599.99999992
993,74424959.99999996
1017,74424959.99999996
1497,431170820.6885418
1533,11438885.168497468
1557,11438885.168497468
2228,6483356.849732971
2366,2274311.427575087
4114,38482181.51656003
4126,16519577.605455207
4162,14199365.105798258
4222,417457624.09246936
4235,37364.001849953085
4350,0.0
4471,218738.904649172
2,1, 1, 1, 0,13, 0.00,60.00,Holiday
11,223733730.39412166
47,88946611.56477535
71,41027011.56477536
346,47919599.99999992
993,89913239.99999997
1017,89913239.99999997
1497,351541976.9994125
1533,11438885.168497468
1557,11438885.168497468
2228,7012947.746829529
2366,2454079.7642800316
4114,37630175.285890977
4126,16519577.605455207
4162,14199365.105798258
4222,337649012.06663498
4235,25858.025207742878
4350,0.0
4471,204897.77141816144
2,1, 1, 1, 0,14, 0.00,60.00,Holiday
11,222576689.49059383
47,89078333.41403555
71,41158733.41403556
346,47919599.99999992
993,89913239.99999997
1017,89913239.99999997
1497,269370905.4428613
1533,0.0
1557,0.0
2228,7456396.319592643
2366,2473087.433710602
4114,35908917.37756687
4126,16519577.605455207
4162,14199365.105798258
4222,266897818.00915069
4235,19221.73161867666
4350,0.0
4471,200580.6477801972
2,1, 1, 1, 0,15, 0.00,60.00,Holiday
11,221369537.89176569
47,89119377.99751744
71,41199777.99751745
346,47919599.99999992
993,89913239.99999997
1017,89913239.99999997
1497,229773364.24284388
1533,0.0
1557,0.0
2228,7297017.121505781
2366,2316924.219341247
4114,34824793.506658319
4126,16519577.605455207
4162,14199365.105798258
4222,227456440.02350263
4235,15959.6660550733
4350,0.0
4471,199149.6000291881
2,1, 1, 1, 0,16, 0.00,60.00,Holiday
11,222457598.8137065
47,89242007.99810452
71,41322407.99810454
346,47919599.99999992
993,89913239.99999997
1017,89913239.99999997
1497,274113840.43892
1533,0.0
1557,0.0
2228,7375826.993535637
2366,2232821.699397212
4114,35704453.29052043
4126,16519577.605455207
4162,14199365.105798258
4222,271881018.7395228
4235,20808.363036280683
4350,0.0
4471,201262.1685096919
2,1, 1, 1, 0,17, 0.00,60.00,Holiday
11,224289218.05219389
47,89700192.77214182
71,41780592.77214184
346,47919599.99999992
993,89913239.99999997
1017,89913239.99999997
1497,353629463.9141729
1533,28597212.921243654
1557,28597212.921243654
2228,7542212.651327712
2366,2456877.55286944
4114,36902551.00316668
4126,16519577.605455207
4162,14199365.105798258
4222,322575373.4400598
4235,25679.578485366015
4350,0.0
4471,205342.04707237386
2,1, 1, 1, 0,18, 0.00,60.00,Holiday
11,197323950.04682005
47,78647111.99999994
71,30727511.99999999
346,47919599.99999992
993,74424959.99999996
1017,74424959.99999996
1497,411649405.12992969
1533,28597212.921243654
1557,28597212.921243654
2228,6253420.991193619
2366,2413522.4371306516
4114,37752848.255691248
4126,16519577.605455207
4162,14199365.105798258
4222,380638669.7715553
4235,33128.33639289292
4350,0.0
4471,212480.4635424489
2,1, 1, 1, 0,19, 0.00,60.00,Holiday
11,246164685.91814346
47,106749035.99999982
71,15931835.999999995
346,90817199.99999984
993,101834279.99999984
1017,101834279.99999984
1497,313374827.9812343
1533,28597212.921243654
1557,28597212.921243654
2228,5697583.800409128
2366,1832816.7846299913
4114,31616902.83230604
4126,14487417.026481722
4162,14199365.105798258
4222,282944798.27536079
4235,41560.239747067935
4350,0.0
4471,225323.04568148638
2,1, 1, 1, 0,20, 0.00,60.00,Holiday
11,271153969.42171987
47,124250678.9999998
71,4835078.999999999
346,119415599.9999998
993,118816469.99999982
1017,118816469.99999982
1497,13463364.118975262
1533,0.0
1557,0.0
2228,4843462.855367349
2366,1915466.5345117043
4114,23243357.56635279
4126,8458341.339612136
4162,14199365.105798258
4222,11547897.584463556
4235,0.0
4350,0.0
4471,0.0
2,1, 1, 1, 0,21, 0.00,60.00,Holiday
11,299138700.83307227
47,138549878.9999998
71,4835078.999999999
346,133714799.99999979
993,133115669.99999979
1017,133115669.99999979
1497,6736474.516975163
1533,0.0
1557,0.0
2228,4566324.413425874
2366,1963569.4036557982
4114,22906827.41964662
4126,8458341.339612136
4162,14199365.105798258
4222,4772905.113319365
4235,0.0
4350,0.0
4471,0.0
2,1, 1, 1, 0,22, 0.00,60.00,Holiday
11,269581554.99784937
47,124250678.9999998
71,4835078.999999999
346,119415599.9999998
993,118816469.99999982
1017,118816469.99999982
1497,8552685.594159026
1533,0.0
1557,0.0
2228,3487210.722958985
2366,1374936.573645998
4114,23027195.27489063
4126,8458341.339612136
4162,14199365.105798258
4222,7177749.020513027
4235,0.0
4350,0.0
4471,0.0
2,1, 1, 1, 0,23, 0.00,60.00,Holiday
11,210181734.6343301
47,95652278.99999984
71,4835078.999999999
346,90817199.99999984
993,90218069.99999985
1017,90218069.99999985
1497,1324046.633735246
1533,0.0
1557,0.0
2228,1653679.188919967
2366,1324046.633735246
4114,22657706.445410395
4126,8458341.339612136
4162,14199365.105798258
4222,0.0
4235,0.0
4350,0.0
4471,0.0
2,1, 1, 1, 0,24, 0.00,60.00,Holiday
11,124331376.06193409
47,52754678.99999992
71,4835078.999999999
346,47919599.99999992
993,47320469.999999929
1017,47320469.999999929
1497,1138543.5321027395
1533,0.0
1557,0.0
2228,1598520.6165237318
2366,1138543.5321027395
4114,22657706.445410395
4126,8458341.339612136
4162,14199365.105798258
4222,0.0
4235,0.0
4350,0.0
4471,0.0
2,2, 1, 2, 0, 1, 0.00,60.00,Friday
11,66322279.28775502
47,24156278.99999996
71,4835078.999999999
346,19321199.999999968
993,18722069.99999997
1017,18722069.99999997
1497,1105771.6040582914
1533,0.0
1557,0.0
2228,786223.8423446802
2366,1105771.6040582914
4114,22657706.445410395
4126,8458341.339612136
4162,14199365.105798258
4222,0.0
4235,0.0
4350,0.0
4471,0.0
2,2, 1, 2, 0, 2, 0.00,60.00,Friday
11,66328791.45369681
47,24156278.99999996
71,4835078.999999999
346,19321199.999999968
993,18722069.99999997
1017,18722069.99999997
1497,1116914.3167933129
1533,0.0
1557,0.0
2228,792736.0082864679
2366,1116914.3167933129
4114,22657706.445410395
4126,8458341.339612136
4162,14199365.105798258
4222,0.0
4235,0.0
4350,0.0
4471,0.0
2,2, 1, 2, 0, 3, 0.00,60.00,Friday
11,67121523.24764864
47,24156278.99999996
71,4835078.999999999
346,19321199.999999968
993,18722069.99999997
1017,18722069.99999997
1497,1034713.2783147495
1533,0.0
1557,0.0
2228,1585467.802238296
2366,1034713.2783147495
4114,22657706.445410395
4126,8458341.339612136
4162,14199365.105798258
4222,0.0
4235,0.0
4350,0.0
4471,0.0
2,2, 1, 2, 0, 4, 0.00,60.00,Friday
11,70088753.87726648
47,24156278.99999996
71,4835078.999999999
346,19321199.999999968
993,18722069.99999997
1017,18722069.99999997
1497,1765680.1507750194
1533,0.0
1557,0.0
2228,786069.6032531363
2366,1029817.3156383142
4114,26324666.327971665
4126,12125301.222173408
4162,14199365.105798258
4222,735862.8351367051
4235,131.7491973921788
4350,0.0
4471,99537.19684434423
2,2, 1, 2, 0, 5, 0.00,60.00,Friday
11,70258655.94642242
47,24156278.99999996
71,4835078.999999999
346,19321199.999999968
993,18722069.99999997
1017,18722069.99999997
1497,3395760.6101400258
1533,0.0
1557,0.0
2228,786205.259895136
2366,1029729.6484378452
4114,26494329.136469038
4126,12255312.363479786
4162,14199365.105798258
4222,2366030.961702181
4235,273.3422643192615
4350,0.0
4471,99499.20779396678
2,2, 1, 2, 0, 6, 0.00,60.00,Friday
11,132107756.52020853
47,53890838.99999992
71,5971238.999999999
346,47919599.99999992
993,47871269.999999929
1017,47871269.999999929
1497,64992394.72826335
1533,0.0
1557,0.0
2228,786316.9371973941
2366,1036599.0807952936
4114,29459453.42866073
4126,15236715.698420182
4162,14199365.105798258
4222,63955795.64746806
4235,411.0101209854214
4350,0.0
4471,99466.14422944622
2,2, 1, 2, 0, 7, 0.00,60.00,Friday
11,207237866.28828988
47,80361638.99999988
71,5971238.999999999
346,74390399.99999988
993,69320069.9999999
1017,69320069.9999999
1497,800983176.8103182
1533,28597212.921243654
1557,28597212.921243654
2228,786331.409403741
2366,1034532.6214442562
4114,55662590.31895241
4126,25433812.60217492
4162,14199365.105798258
4222,771351431.2676303
4235,83043.19997284265
4350,0.0
4471,1024192.3599611209
2,2, 1, 2, 0, 8, 0.00,60.00,Friday
11,221503935.99083338
47,95889715.57447404
71,21499315.574474165
346,74390399.99999988
993,83139479.99999988
1017,83139479.99999988
1497,534279931.50617149
1533,28882321.086319496
1557,28882321.086319496
2228,3456394.827594315
2366,1955333.3706614618
4114,38662750.673204969
4126,16594263.272730016
4162,14199365.105798258
4222,503442277.0491904
4235,55220.929582749544
4350,0.0
4471,300373.98597739849
2,2, 1, 2, 0, 9, 0.00,60.00,Friday
11,278784042.2106359
47,125103015.80574492
71,50712615.80574506
346,74390399.99999988
993,112981499.99999987
1017,112981499.99999987
1497,369137842.6335723
1533,285108.16507584266
1557,285108.16507584266
2228,4659749.687749772
2366,2291971.103674883
4114,35782537.66240811
4126,16519577.605455207
4162,14199365.105798258
4222,366560763.36482158
4235,37022.817595272805
4350,0.0
4471,220216.23713787687
2,2, 1, 2, 0,10, 0.00,60.00,Friday
11,336513922.8399968
47,150650858.5985847
71,76260458.59858476
346,74390399.99999988
993,143958059.99999995
1017,143958059.99999995
1497,288473153.780709
1533,285108.16507584266
1557,285108.16507584266
2228,6127794.145998253
2366,2791846.922976805
4114,35549362.77924291
4126,16563719.330728285
4162,14199365.105798258
4222,285396198.6926564
4235,23481.973274276366
4350,0.0
4471,204365.3428968726
2,2, 1, 2, 0,11, 0.00,60.00,Friday
11,298298849.78695949
47,129548227.68416927
71,76606627.68416929
346,52941599.9999999
993,122509259.99999996
1017,122509259.99999996
1497,314019461.52548888
1533,513194.69713651677
1557,513194.69713651677
2228,8509877.014962854
2366,3395921.703542945
4114,37507158.76705938
4126,16605491.470212542
4162,14199365.105798258
4222,310110345.1248094
4235,21540.168034279377
4350,0.0
4471,202786.15273377533
2,2, 1, 2, 0,12, 0.00,60.00,Friday
11,300341847.81325229
47,128621653.68680984
71,75680053.68680987
346,52941599.9999999
993,122509259.99999996
1017,122509259.99999996
1497,310863336.46400579
1533,11952079.865633984
1557,11952079.865633984
2228,11786099.619952036
2366,4064453.313165504
4114,37202248.67371881
4126,16804066.287263305
4162,14199365.105798258
4222,294846803.28520628
4235,20627.870832024568
4350,0.0
4471,201957.96193961474
2,2, 1, 2, 0,13, 0.00,60.00,Friday
11,294824653.21770259
47,125337690.03004691
71,72396090.03004694
346,52941599.9999999
993,122509259.99999996
1017,122509259.99999996
1497,249747018.20968087
1533,11952079.865633984
1557,11952079.865633984
2228,12064334.987125058
2366,4368296.602874227
4114,34694160.9247859
4126,16879001.2683311
4162,14199365.105798258
4222,233426641.7411726
4235,18501.49500231835
4350,0.0
4471,200705.78074258578
2,2, 1, 2, 0,14, 0.00,60.00,Friday
11,292547799.7946213
47,124491467.38462661
71,71549867.38462663
346,52941599.9999999
993,122509259.99999996
1017,122509259.99999996
1497,175469358.5112075
1533,513194.69713651677
1557,513194.69713651677
2228,13043937.581710093
2366,4558532.372907772
4114,32288113.31880545
4126,16932768.936776494
4162,14199365.105798258
4222,170397631.4411632
4235,15631.975719089185
4350,0.0
4471,199389.5337602051
2,2, 1, 2, 0,15, 0.00,60.00,Friday
11,289742382.3200798
47,125104190.453509
71,72162590.45350904
346,52941599.9999999
993,122509259.99999996
1017,122509259.99999996
1497,140515743.11425749
1533,427662.2476137639
1557,427662.2476137639
2228,10287714.752027493
2366,3451410.3542718987
4114,31629197.35058315
4126,17011751.63616555
4162,14199365.105798258
4222,136636670.51237185
4235,13324.463478392092
4350,0.0
4471,198695.30048183114
2,2, 1, 2, 0,16, 0.00,60.00,Friday
11,290574145.7241138
47,127513409.40257006
71,74571809.40257007
346,52941599.9999999
993,122509259.99999996
1017,122509259.99999996
1497,111557889.21444112
1533,427662.2476137639
1557,427662.2476137639
2228,8630654.259059255
2366,3320369.7732759157
4114,31712251.61767461
4126,17299599.83948484
4162,14199365.105798258
4222,107809857.19355142
4235,10321.7916097636
4350,0.0
4471,198248.65320025784
2,2, 1, 2, 0,17, 0.00,60.00,Friday
11,293951959.28554347
47,130309948.20168492
71,77368348.20168495
346,52941599.9999999
993,122509259.99999996
1017,122509259.99999996
1497,144326261.54254128
1533,29024875.168857416
1557,29024875.168857416
2228,9264683.760118684
2366,3640271.6898852309
4114,31658825.70886725
4126,17231161.21803154
4162,14199365.105798258
4222,111661114.6837986
4235,10969.202218348468
4350,0.0
4471,198272.41265438577
2,2, 1, 2, 0,18, 0.00,60.00,Friday
11,283554948.5086145
47,123776342.99999996
71,70834742.99999997
346,52941599.9999999
993,118102859.99999997
1017,118102859.99999997
1497,172039420.06541754
1533,29024875.168857416
1557,29024875.168857416
2228,9720434.93788947
2366,3125513.182684406
4114,31744645.54597281
4126,16938106.798846567
4162,14199365.105798258
4222,139889031.7138757
4235,12235.14904980917
4350,0.0
4471,198429.8757024756
2,2, 1, 2, 0,19, 0.00,60.00,Friday
11,318921745.6730455
47,143344268.99999986
71,47505068.99999999
346,95839199.99999984
993,135564839.99999989
1017,135564839.99999989
1497,192185235.16522945
1533,28597212.921243654
1557,28597212.921243654
2228,8902898.142115139
2366,2982347.0757856455
4114,30891679.532818855
4126,16674636.076168932
4162,14199365.105798258
4222,160605675.16820015
4235,17901.733849928693
4350,0.0
4471,200157.2642618482
2,2, 1, 2, 0,20, 0.00,60.00,Friday
11,373536541.27809628
47,171942668.99999974
71,47505068.99999999
346,124437599.9999998
993,164163239.99999974
1017,164163239.99999974
1497,164367417.57609124
1533,0.0
1557,0.0
2228,6468544.34508541
2366,2483076.4948548318
4114,30743426.138100219
4126,16544061.032301963
4162,14199365.105798258
4222,161884341.08123643
4235,18174.367203010515
4350,0.0
4471,200487.42770800714
2,2, 1, 2, 0,21, 0.00,60.00,Friday
11,388049587.5862849
47,180270629.9999997
71,41533829.999999988
346,138736799.9999998
993,169616699.99999974
1017,169616699.99999974
1497,177856335.54435856
1533,0.0
1557,0.0
2228,7220998.239883269
2366,2481367.1110392159
4114,30718942.711253466
4126,16519577.605455207
4162,14199365.105798258
4222,175374968.43331934
4235,20545.44893158485
4350,0.0
4471,201771.18621693855
2,2, 1, 2, 0,22, 0.00,60.00,Friday
11,305213883.23840829
47,143777915.9999998
71,19340315.999999998
346,124437599.9999998
993,132085079.9999998
1017,132085079.9999998
1497,63257393.2380281
1533,0.0
1557,0.0
2228,4655922.003197194
2366,2004055.747959008
4114,24694965.235211426
4126,10490501.918585619
4162,14199365.105798258
4222,61253337.49006909
4235,0.0
4350,0.0
4471,0.0
2,2, 1, 2, 0,23, 0.00,60.00,Friday
11,214793384.91668976
47,96788438.99999984
71,5971238.999999999
346,90817199.99999984
993,90768869.99999985
1017,90768869.99999985
1497,62512905.602011088
1533,0.0
1557,0.0
2228,2546208.892306151
2366,1347435.8488162859
4114,24689867.024383878
4126,10490501.918585619
4162,14199365.105798258
4222,61165469.753194797
4235,0.0
4350,0.0
4471,0.0
2,2, 1, 2, 0,24, 0.00,60.00,Friday
11,126390890.221458
47,52754678.99999992
71,4835078.999999999
346,47919599.99999992
993,47320469.999999929
1017,47320469.999999929
1497,62478836.77103602
1533,0.0
1557,0.0
2228,1625874.19707417
2366,1313367.0178412216
4114,24689867.024383878
4126,10490501.918585619
4162,14199365.105798258
4222,61165469.753194797
4235,0.0
4350,0.0
4471,0.0
2,3, 1, 3, 0, 1, 0.00,60.00,Saturday
11,68038004.82445225
47,24156278.99999996
71,4835078.999999999
346,19321199.999999968
993,18722069.99999997
1017,18722069.99999997
1497,1333609.0918302248
1533,0.0
1557,0.0
2228,2501949.3790419038
2366,1333609.0918302248
4114,22657706.445410395
4126,8458341.339612136
4162,14199365.105798258
4222,0.0
4235,0.0
4350,0.0
4471,0.0
2,3, 1, 3, 0, 2, 0.00,60.00,Saturday
11,67192251.20895487
47,24156278.99999996
71,4835078.999999999
346,19321199.999999968
993,18722069.99999997
1017,18722069.99999997
1497,1387321.10553675
1533,0.0
1557,0.0
2228,1653451.7025072228
2366,1326830.7557780594
4114,22660450.506447704
4126,8458341.339612136
4162,14199365.105798258
4222,60490.34975869072
4235,0.0
4350,0.0
4471,0.0
2,3, 1, 3, 0, 3, 0.00,60.00,Saturday
11,67336400.00042455
47,24156278.99999996
71,4835078.999999999
346,19321199.999999968
993,18722069.99999997
1017,18722069.99999997
1497,4890595.432123979
1533,0.0
1557,0.0
2228,1625535.6265760246
2366,1050576.7449802003
4114,22832515.373848574
4126,8458341.339612136
4162,14199365.105798258
4222,3840018.6871437786
4235,0.0
4350,0.0
4471,0.0
2,3, 1, 3, 0, 4, 0.00,60.00,Saturday
11,67878459.71135617
47,24156278.99999996
71,4835078.999999999
346,19321199.999999968
993,18722069.99999997
1017,18722069.99999997
1497,17175951.449317706
1533,0.0
1557,0.0
2228,1598612.348386248
2366,1300340.2422814586
4114,23401498.36296997
4126,8458341.339612136
4162,14199365.105798258
4222,15875611.207036246
4235,0.0
4350,0.0
4471,0.0
2,3, 1, 3, 0, 5, 0.00,60.00,Saturday
11,68338899.7651083
47,24156278.99999996
71,4835078.999999999
346,19321199.999999968
993,18722069.99999997
1017,18722069.99999997
1497,43153640.67445618
1533,0.0
1557,0.0
2228,799222.5683329476
2366,1039878.7579934698
4114,24661328.19677541
4126,8458341.339612136
4162,14199365.105798258
4222,42113761.91646271
4235,0.0
4350,0.0
4471,0.0
2,3, 1, 3, 0, 6, 0.00,60.00,Saturday
11,128212716.44070077
47,52754678.99999992
71,4835078.999999999
346,47919599.99999992
993,47320469.999999929
1017,47320469.999999929
1497,101733900.84554857
1533,0.0
1557,0.0
2228,1598660.0909346543
2366,1081485.4837270473
4114,26538907.34976615
4126,10490501.918585619
4162,14199365.105798258
4222,100652415.3618215
4235,0.0
4350,0.0
4471,0.0
2,3, 1, 3, 0, 7, 0.00,60.00,Saturday
11,220781265.63436086
47,80361638.99999988
71,5971238.999999999
346,74390399.99999988
993,69320069.9999999
1017,69320069.9999999
1497,1125588642.3054944
1533,28597212.921243654
1557,28597212.921243654
2228,1612230.0850704192
2366,1278239.5648668179
4114,68277239.51990509
4126,23869323.660091185
4162,14199365.105798258
4222,1095713189.819384
4235,96756.18430854863
4350,0.0
4471,1113330.8450769783
2,3, 1, 3, 0, 8, 0.00,60.00,Saturday
11,208737700.0323078
47,83789723.26029694
71,9399323.26029706
346,74390399.99999988
993,73192139.99999988
1017,73192139.99999988
1497,791135256.0515745
1533,28597212.921243654
1557,28597212.921243654
2228,3619068.9168850069
2366,1846922.1873364403
4114,47619049.29431026
4126,16544966.434331095
4162,14199365.105798258
4222,760691120.9429944
4235,75769.91775521988
4350,0.0
4471,441948.6430605297
2,3, 1, 3, 0, 9, 0.00,60.00,Saturday
11,239429917.15044559
47,101255844.3235796
71,26865444.323579737
346,74390399.99999988
993,90883619.99999987
1017,90883619.99999987
1497,601123901.8204496
1533,285108.16507584266
1557,285108.16507584266
2228,5216005.50874699
2366,2187138.311219778
4114,41666743.35681959
4126,16519577.605455207
4162,14199365.105798258
4222,598651655.3441539
4235,64250.77391328141
4350,0.0
4471,343453.1873862303
2,3, 1, 3, 0,10, 0.00,60.00,Saturday
11,275598849.72305867
47,117998616.28077175
71,43608216.28077188
346,74390399.99999988
993,114116039.99999988
1017,114116039.99999988
1497,452155905.9168259
1533,285108.16507584266
1557,285108.16507584266
2228,5285630.073022011
2366,2123176.313418927
4114,37884890.145996
4126,16563807.37159031
4162,14199365.105798258
4222,449747621.4383311
4235,46691.05769359105
4350,0.0
4471,266982.16557541748
2,3, 1, 3, 0,11, 0.00,60.00,Saturday
11,278697726.1768856
47,116618011.36194092
71,63676411.361940938
346,52941599.9999999
993,115899659.99999997
1017,115899659.99999997
1497,372759398.52066317
1533,513194.69713651677
1557,513194.69713651677
2228,9117906.4644004
2366,2965785.8266611949
4114,36800375.70987239
4126,16649965.215187429
4162,14199365.105798258
4222,369280417.99686548
4235,34551.164999556575
4350,0.0
4471,227221.47567242952
2,3, 1, 3, 0,12, 0.00,60.00,Saturday
11,278693734.5133431
47,116554901.55923768
71,63613301.55923769
346,52941599.9999999
993,115899659.99999997
1017,115899659.99999997
1497,321843374.65904006
1533,11952079.865633984
1557,11952079.865633984
2228,10683218.924992793
2366,3610652.283723393
4114,35313535.824039157
4126,16886933.994367444
4162,14199365.105798258
4222,306280642.5096826
4235,29123.480673234357
4350,0.0
4471,213294.7244003415
2,3, 1, 3, 0,13, 0.00,60.00,Saturday
11,273278364.6174826
47,113012511.38913447
71,60070911.38913448
346,52941599.9999999
993,114247259.99999997
1017,114247259.99999997
1497,279522436.7390879
1533,11952079.865633984
1557,11952079.865633984
2228,11652079.398882449
2366,3706039.81529441
4114,34132952.48476513
4126,16968325.464255357
4162,14199365.105798258
4222,263864317.0581595
4235,25806.355283924546
4350,0.0
4471,207754.98941680505
2,3, 1, 3, 0,14, 0.00,60.00,Saturday
11,273368527.46579179
47,113066815.79057148
71,60125215.7905715
346,52941599.9999999
993,114247259.99999997
1017,114247259.99999997
1497,216826631.2289415
1533,513194.69713651677
1557,513194.69713651677
2228,12816407.249794657
2366,3709480.1598316917
4114,32956241.422674046
4126,17028133.042815195
4162,14199365.105798258
4222,212603956.37197326
4235,20888.32773819526
4350,58144.03579754324
4471,202770.63921594723
2,3, 1, 3, 0,15, 0.00,60.00,Saturday
11,270430323.2639404
47,113206186.36003314
71,60264586.36003315
346,52941599.9999999
993,114247259.99999997
1017,114247259.99999997
1497,176197857.5559735
1533,427662.2476137639
1557,427662.2476137639
2228,9975961.230732674
2366,3078383.7254126186
4114,32447587.831366715
4126,17253874.05714229
4162,14199365.105798258
4222,172691811.5829471
4235,16480.23195757039
4350,337009.11694165357
4471,199838.49290880003
2,3, 1, 3, 0,16, 0.00,60.00,Saturday
11,270481753.46740439
47,113491461.04647781
71,60549861.04647783
346,52941599.9999999
993,114247259.99999997
1017,114247259.99999997
1497,162038849.4520538
1533,427662.2476137639
1557,427662.2476137639
2228,9649398.708587219
2366,3022379.051710654
4114,32599113.766789795
4126,17550935.098162675
4162,14199365.105798258
4222,158588808.15272937
4235,14485.803654667274
4350,280955.634156945
4471,199078.50773804385
2,3, 1, 3, 0,17, 0.00,60.00,Saturday
11,274638554.7020157
47,117991929.89790322
71,65050329.89790324
346,52941599.9999999
993,114247259.99999997
1017,114247259.99999997
1497,196592033.12140496
1533,29024875.168857416
1557,29024875.168857416
2228,9310946.64080989
2366,3019859.696953445
4114,32849621.398076714
4126,17752335.807355159
4162,14199365.105798258
4222,164547298.25559408
4235,15146.010598366816
4350,24374.929344166238
4471,199275.82528340046
2,3, 1, 3, 0,18, 0.00,60.00,Saturday
11,267742760.0497027
47,111937382.99999996
71,64017782.99999998
346,47919599.99999992
993,113145659.99999997
1017,113145659.99999997
1497,259914821.49736903
1533,28597212.921243654
1557,28597212.921243654
2228,9020421.273699176
2366,2942919.8087016504
4114,33413030.40991264
4126,17217770.996637975
4162,14199365.105798258
4222,228374688.76742376
4235,22544.092665162392
4350,0.0
4471,203721.2734258597
2,3, 1, 3, 0,19, 0.00,60.00,Saturday
11,295263886.2500359
47,128942549.99999987
71,38125349.999999988
346,90817199.99999984
993,125066699.99999988
1017,125066699.99999988
1497,276031782.1774721
1533,28597212.921243654
1557,28597212.921243654
2228,9357061.22845476
2366,2682391.9859235615
4114,31655437.26023911
4126,16519577.605455207
4162,14199365.105798258
4222,244752177.27030493
4235,29399.86283699116
4350,0.0
4471,212737.89850527605
2,3, 1, 3, 0,20, 0.00,60.00,Saturday
11,317558950.6801083
47,142745273.9999998
71,23329673.999999994
346,119415599.9999998
993,138176819.9999998
1017,138176819.9999998
1497,208556386.2329443
1533,0.0
1557,0.0
2228,7459092.285514926
2366,2389596.504852646
4114,28917831.147340023
4126,14487417.026481722
4162,14199365.105798258
4222,206166789.72809167
4235,36314.520492451215
4350,0.0
4471,223618.72676124067
2,3, 1, 3, 0,21, 0.00,60.00,Saturday
11,344510522.7882986
47,157044473.99999977
71,23329673.999999994
346,133714799.99999979
993,152476019.99999977
1017,152476019.99999977
1497,227216990.61061
1533,0.0
1557,0.0
2228,5932675.79030502
2366,2341538.634535954
4114,28786352.086772287
4126,14487417.026481722
4162,14199365.105798258
4222,224875451.976074
4235,40636.738051299384
4350,0.0
4471,230364.17317030219
2,3, 1, 3, 0,22, 0.00,60.00,Saturday
11,284751535.3021255
47,127949597.9999998
71,8533997.999999999
346,119415599.9999998