Program Version,EnergyPlus, Version 9.0.1-bb7ca4f0da, YMD=2019.12.17 16:59
1,5,Environment Title[],Latitude[deg],Longitude[deg],Time Zone[],Elevation[m]
2,8,Day of Simulation[],Month[],Day of Month[],DST Indicator[1=yes 0=no],Hour[],StartMinute[],EndMinute[],DayType
3,5,Cumulative Day of Simulation[],Month[],Day of Month[],DST Indicator[1=yes 0=no],DayType  ! When Daily Meters Requested
4,2,Cumulative Days of Simulation[],Month[]  ! When Monthly Meters Requested
5,1,Cumulative Days of Simulation[] ! When Run Period Meters Requested
6,1,Calendar Year of Simulation[] ! When Annual Meters Requested
2228,1,WaterSystems:Electricity [J] !Hourly
4210,1,Heating:Electricity [J] !Hourly
993,1,InteriorEquipment:Electricity [J] !Hourly
11,1,Electricity:Facility [J] !Hourly
47,1,InteriorLights:Electricity [J] !Hourly
2366,1,WaterSystems:Gas [J] !Hourly
4114,1,Fans:Electricity [J] !Hourly
4473,1,Pumps:Electricity [J] !Hourly
4348,1,Cooling:Electricity [J] !Hourly
1497,1,Gas:Facility [J] !Hourly
1533,1,InteriorEquipment:Gas [J] !Hourly
4236,1,Heating:Gas [J] !Hourly
1017,1,Receptacle:InteriorEquipment:Electricity [J] !Hourly
1557,1,Receptacle:InteriorEquipment:Gas [J] !Hourly
71,1,ComplianceLtg:InteriorLights:Electricity [J] !Hourly
346,1,NonComplianceLtg:InteriorLights:Electricity [J] !Hourly
4126,1,General:Fans:Electricity [J] !Hourly
4162,1,ProcessMotors:Fans:Electricity [J] !Hourly
End of Data Dictionary
1,ARCATA_725945_CZ2010,  40.98,-124.10,  -8.00,  62.00
2,1, 1, 1, 0, 1, 0.00,60.00,Holiday
11,66353467.383050289
47,24156278.99999996
71,4835078.999999999
346,19321199.999999968
993,18722069.99999997
1017,18722069.99999997
1497,1254355.4964587056
1533,0.0
1557,0.0
2228,808159.42810323
2366,1045181.4957208587
4114,22666958.954947108
4126,8458341.339612136
4162,14199365.105798256
4210,0.0
4236,209174.00073784678
4348,0.0
4473,0.0
2,1, 1, 1, 0, 2, 0.00,60.00,Holiday
11,67261146.32611884
47,24156278.99999996
71,4835078.999999999
346,19321199.999999968
993,18722069.99999997
1017,18722069.99999997
1497,3566899.002746242
1533,0.0
1557,0.0
2228,1616201.7876584982
2366,1105214.443315766
4114,22766595.538460405
4126,8458341.339612136
4162,14199365.105798256
4210,0.0
4236,2461684.5594304755
4348,0.0
4473,0.0
2,1, 1, 1, 0, 3, 0.00,60.00,Holiday
11,69312510.02292675
47,24156278.99999996
71,4835078.999999999
346,19321199.999999968
993,18722069.99999997
1017,18722069.99999997
1497,9306393.311434342
1533,0.0
1557,0.0
2228,1616038.1559386305
2366,1246375.9843260064
4114,24784885.09907502
4126,10245232.263131613
4162,14199365.105798256
4210,65.71659516073459
4236,8060017.327108335
4348,0.0
4473,33172.05131797999
2,1, 1, 1, 0, 4, 0.00,60.00,Holiday
11,71733431.06697332
47,24156278.99999996
71,4835078.999999999
346,19321199.999999968
993,18722069.99999997
1017,18722069.99999997
1497,18200083.45431906
1533,0.0
1557,0.0
2228,1601994.5253585682
2366,1039616.8471533512
4114,27153341.219496959
4126,12255312.363479784
4162,14199365.105798256
4210,244.49852224354346
4236,17160466.60716571
4348,0.0
4473,99501.82359558836
2,1, 1, 1, 0, 5, 0.00,60.00,Holiday
11,71287987.02202082
47,24156278.99999996
71,4835078.999999999
346,19321199.999999968
993,18722069.99999997
1017,18722069.99999997
1497,28172392.58497124
1533,0.0
1557,0.0
2228,800949.7697969844
2366,1239650.399293608
4114,27508710.08102602
4126,12255312.363479784
4162,14199365.105798256
4210,555.7355908163839
4236,26932742.185677634
4348,0.0
4473,99422.43560704851
2,1, 1, 1, 0, 6, 0.00,60.00,Holiday
11,144088957.71875728
47,52754678.99999992
71,4835078.999999999
346,47919599.99999992
993,47320469.999999929
1017,47320469.999999929
1497,19905392.92656639
1533,0.0
1557,0.0
2228,1602203.1868299223
2366,1107386.6833677667
4114,29985715.32494697
4126,15236715.698420182
4162,14199365.105798256
4210,12301683.951235308
4236,18798006.243198623
4348,0.0
4473,124206.25574509772
2,1, 1, 1, 0, 7, 0.00,60.00,Holiday
11,207470521.05405299
47,74203478.99999988
71,4835078.999999999
346,69368399.9999999
993,68769269.9999999
1017,68769269.9999999
1497,534946264.7331723
1533,28597212.921243654
1557,28597212.921243654
2228,1615973.641843238
2366,1145106.8265983314
4114,50985612.862913418
4126,14684429.004039437
4162,14199365.105798256
4210,11786425.77296967
4236,505203944.9853303
4348,0.0
4473,109759.7763269064
2,1, 1, 1, 0, 8, 0.00,60.00,Holiday
11,196078470.30773924
47,74190773.33067349
71,4822373.330673599
346,69368399.9999999
993,68769269.9999999
1017,68769269.9999999
1497,283499620.7917825
1533,28597212.921243654
1557,28597212.921243654
2228,2489211.9964775086
2366,1225890.852814409
4114,39011344.56647728
4126,13896256.352236843
4162,14199365.105798256
4210,11518565.529085346
4236,253676517.0177245
4348,0.0
4473,99304.88502568518
2,1, 1, 1, 0, 9, 0.00,60.00,Holiday
11,213429076.4937559
47,77458266.95595426
71,8089866.955954378
346,69368399.9999999
993,72641339.99999988
1017,72641339.99999988
1497,571883735.63696
1533,0.0
1557,0.0
2228,2535137.964838641
2366,1542558.3260165458
4114,47681690.40596709
4126,25747487.878543624
4162,14199365.105798256
4210,12099265.31037135
4236,570341177.3109435
4348,0.0
4473,1013375.8566246773
2,1, 1, 1, 0,10, 0.00,60.00,Holiday
11,203384115.4367466
47,77451121.14334968
71,8082721.143349804
346,69368399.9999999
993,72641339.99999988
1017,72641339.99999988
1497,477006219.80326297
1533,0.0
1557,0.0
2228,2582702.3989779625
2366,1424303.265203289
4114,38005156.722754787
4126,16629133.410349876
4162,14199365.105798256
4210,12358721.671517879
4236,475581916.5380597
4348,0.0
4473,345073.50014638478
2,1, 1, 1, 0,11, 0.00,60.00,Holiday
11,210314228.61064185
47,77795314.82580559
71,29875714.825805636
346,47919599.99999992
993,74424959.99999996
1017,74424959.99999996
1497,439887991.3648033
1533,0.0
1557,0.0
2228,6008308.957414789
2366,2067442.2654990787
4114,39510330.12468371
4126,16519577.605455209
4162,14199365.105798256
4210,12338542.479542612
4236,437820549.0993042
4348,0.0
4473,236772.22319529786
2,1, 1, 1, 0,12, 0.00,60.00,Holiday
11,208328804.670341
47,76685576.64225662
71,28765976.642256664
346,47919599.99999992
993,74424959.99999996
1017,74424959.99999996
1497,390672799.0275395
1533,11438885.168497468
1557,11438885.168497468
2228,7167106.207907799
2366,2404108.258034725
4114,37868015.68755367
4126,16519577.605455209
4162,14199365.105798256
4210,11961377.360388017
4236,376829805.60100749
4348,0.0
4473,221768.77223502985
2,1, 1, 1, 0,13, 0.00,60.00,Holiday
11,234573761.89044864
47,87437473.23202646
71,39517873.232026498
346,47919599.99999992
993,89913239.99999997
1017,89913239.99999997
1497,334013580.10561379
1533,11438885.168497468
1557,11438885.168497468
2228,7589553.365415634
2366,2478309.3896141836
4114,37329486.9632663
4126,16519577.605455209
4162,14199365.105798256
4210,12093828.875110358
4236,320096385.5475021
4348,0.0
4473,210179.45463001735
2,1, 1, 1, 0,14, 0.00,60.00,Holiday
11,234870658.48961283
47,87608532.64498724
71,39688932.64498727
346,47919599.99999992
993,89913239.99999997
1017,89913239.99999997
1497,314131795.0590631
1533,0.0
1557,0.0
2228,7590013.560402212
2366,2498930.006246983
4114,37236378.54277484
4126,16519577.605455209
4162,14199365.105798256
4210,12312934.456231974
4236,311632865.0528161
4348,0.0
4473,209559.28521663589
2,1, 1, 1, 0,15, 0.00,60.00,Holiday
11,234462666.55889399
47,87651896.66020498
71,39732296.66020501
346,47919599.99999992
993,89913239.99999997
1017,89913239.99999997
1497,304559581.6058435
1533,0.0
1557,0.0
2228,7277778.341429035
2366,2448244.443981195
4114,37151618.807946529
4126,16519577.605455209
4162,14199365.105798256
4210,12259829.625688512
4236,302111337.16186228
4348,0.0
4473,208303.12362505953
2,1, 1, 1, 0,16, 0.00,60.00,Holiday
11,236645885.95623357
47,89300166.79390821
71,41380566.79390822
346,47919599.99999992
993,89913239.99999997
1017,89913239.99999997
1497,313135027.7080295
1533,0.0
1557,0.0
2228,7264176.524397363
2366,2449829.510163186
4114,38004039.754206839
4126,16519577.605455209
4162,14199365.105798256
4210,11957858.052820085
4236,310685198.1978663
4348,0.0
4473,206404.83090112938
2,1, 1, 1, 0,17, 0.00,60.00,Holiday
11,240370029.397397
47,89703200.08297658
71,41783600.082976598
346,47919599.99999992
993,89913239.99999997
1017,89913239.99999997
1497,376712273.3065196
1533,28597212.921243654
1557,28597212.921243654
2228,8062935.20832398
2366,2480225.619208427
4114,39010823.15499483
4126,16519577.605455209
4162,14199365.105798256
4210,13470739.575020941
4236,345634834.7660675
4348,0.0
4473,209091.37608076409
2,1, 1, 1, 0,18, 0.00,60.00,Holiday
11,218729287.23202468
47,78647111.99999994
71,30727511.99999999
346,47919599.99999992
993,74424959.99999996
1017,74424959.99999996
1497,456137751.2049861
1533,28597212.921243654
1557,28597212.921243654
2228,6928082.581008448
2366,2434587.353430244
4114,40278693.735456
4126,16519577.605455209
4162,14199365.105798256
4210,18228689.018989307
4236,425105950.93031218
4348,0.0
4473,221749.8965711093
2,1, 1, 1, 0,19, 0.00,60.00,Holiday
11,248501655.41226686
47,106749035.99999982
71,15931835.999999995
346,90817199.99999984
993,101834279.99999984
1017,101834279.99999984
1497,412026690.385852
1533,28597212.921243654
1557,28597212.921243654
2228,5237560.741546932
2366,1767225.26859533
4114,34391677.379699308
4126,14487417.026481724
4162,14199365.105798256
4210,47297.87960676086
4236,381662252.196013
4348,0.0
4473,241803.41141407658
2,1, 1, 1, 0,20, 0.00,60.00,Holiday
11,273607013.8141245
47,124250678.9999998
71,4835078.999999999
346,119415599.9999998
993,118816469.99999982
1017,118816469.99999982
1497,47346529.55554654
1533,0.0
1557,0.0
2228,5880738.761048982
2366,2099956.0503180327
4114,24659126.0530758
4126,8458341.339612136
4162,14199365.105798256
4210,0.0
4236,45246573.50522851
4348,0.0
4473,0.0
2,1, 1, 1, 0,21, 0.00,60.00,Holiday
11,299941793.91060647
47,138549878.9999998
71,4835078.999999999
346,133714799.99999979
993,133115669.99999979
1017,133115669.99999979
1497,24774230.1535661
1533,0.0
1557,0.0
2228,4606022.248006014
2366,1884033.4374666578
4114,23670222.662600794
4126,8458341.339612136
4162,14199365.105798256
4210,0.0
4236,22890196.71609944
4348,0.0
4473,0.0
2,1, 1, 1, 0,22, 0.00,60.00,Holiday
11,271032988.37776198
47,124250678.9999998
71,4835078.999999999
346,119415599.9999998
993,118816469.99999982
1017,118816469.99999982
1497,42349322.31617768
1533,0.0
1557,0.0
2228,3508180.5195226708
2366,1657363.7697779986
4114,24457658.858239548
4126,8458341.339612136
4162,14199365.105798256
4210,0.0
4236,40691958.54639968
4348,0.0
4473,0.0
2,1, 1, 1, 0,23, 0.00,60.00,Holiday
11,210187758.7793523
47,95652278.99999984
71,4835078.999999999
346,90817199.99999984
993,90218069.99999985
1017,90218069.99999985
1497,1301313.38429495
1533,0.0
1557,0.0
2228,1659703.333942172
2366,1301313.38429495
4114,22657706.445410395
4126,8458341.339612136
4162,14199365.105798256
4210,0.0
4236,0.0
4348,0.0
4473,0.0
2,1, 1, 1, 0,24, 0.00,60.00,Holiday
11,124335072.08419508
47,52754678.99999992
71,4835078.999999999
346,47919599.99999992
993,47320469.999999929
1017,47320469.999999929
1497,1065242.8724144202
1533,0.0
1557,0.0
2228,1602216.6387847353
2366,1065242.8724144202
4114,22657706.445410395
4126,8458341.339612136
4162,14199365.105798256
4210,0.0
4236,0.0
4348,0.0
4473,0.0
2,2, 1, 2, 0, 1, 0.00,60.00,Friday
11,66352218.97212303
47,24156278.99999996
71,4835078.999999999
346,19321199.999999968
993,18722069.99999997
1017,18722069.99999997
1497,1681778.6079654692
1533,0.0
1557,0.0
2228,787395.2036700926
2366,1031405.3009766018
4114,22686474.768452988
4126,8458341.339612136
4162,14199365.105798256
4210,0.0
4236,650373.3069888675
4348,0.0
4473,0.0
2,2, 1, 2, 0, 2, 0.00,60.00,Friday
11,66704856.30782641
47,24156278.99999996
71,4835078.999999999
346,19321199.999999968
993,18722069.99999997
1017,18722069.99999997
1497,9506683.826890484
1533,0.0
1557,0.0
2228,794135.6192428382
2366,1036536.1110252075
4114,23032371.688583625
4126,8458341.339612136
4162,14199365.105798256
4210,0.0
4236,8470147.715865277
4348,0.0
4473,0.0
2,2, 1, 2, 0, 3, 0.00,60.00,Friday
11,72372374.22682926
47,24156278.99999996
71,4835078.999999999
346,19321199.999999968
993,18722069.99999997
1017,18722069.99999997
1497,33123000.821896517
1533,0.0
1557,0.0
2228,1588242.6053710818
2366,1036731.4341835335
4114,27806071.284468999
4126,12235650.12064583
4162,14199365.105798256
4210,195.23904847971526
4236,32086269.387712987
4348,0.0
4473,99516.09794075051
2,2, 1, 2, 0, 4, 0.00,60.00,Friday
11,72827470.51939003
47,24156278.99999996
71,4835078.999999999
346,19321199.999999968
993,18722069.99999997
1017,18722069.99999997
1497,62432348.520133968
1533,0.0
1557,0.0
2228,787323.7959112107
2366,1031529.4617173462
4114,29061907.5931609
4126,12255312.363479784
4162,14199365.105798256
4210,440.17548581448519
4236,61400819.05841661
4348,0.0
4473,99449.95483217939
2,2, 1, 2, 0, 5, 0.00,60.00,Friday
11,73584860.63964118
47,24156278.99999996
71,4835078.999999999
346,19321199.999999968
993,18722069.99999997
1017,18722069.99999997
1497,80561608.65144868
1533,0.0
1557,0.0
2228,787406.8642522764
2366,1170150.8766237118
4114,29819091.91379135
4126,12255312.363479784
4162,14199365.105798256
4210,596.440654472914
4236,79391457.77482498
4348,0.0
4473,99416.42094313367
2,2, 1, 2, 0, 6, 0.00,60.00,Friday
11,166345486.14490129
47,53890838.99999992
71,5971238.999999999
346,47919599.99999992
993,47871269.999999929
1017,47871269.999999929
1497,54130666.170669037
1533,0.0
1557,0.0
2228,787456.7929640134
2366,1158134.7674778924
4114,31558549.23649991
4126,15236715.698420184
4162,14199365.105798256
4210,32113114.68423079
4236,52972531.40319115
4348,0.0
4473,124256.43120659451
2,2, 1, 2, 0, 7, 0.00,60.00,Friday
11,249216162.49039886
47,80361638.99999988
71,5971238.999999999
346,74390399.99999988
993,69320069.9999999
1017,69320069.9999999
1497,1163926555.3861347
1533,28597212.921243654
1557,28597212.921243654
2228,787459.9455462629
2366,1036024.2072903647
4114,70770113.71599205
4126,26513239.689203107
4162,14199365.105798256
4210,26651544.220343334
4236,1134293318.2576006
4348,0.0
4473,1325335.6085174084
2,2, 1, 2, 0, 8, 0.00,60.00,Friday
11,257518044.70770673
47,95999149.24177122
71,21608749.241771349
346,74390399.99999988
993,83139479.99999988
1017,83139479.99999988
1497,757897589.9541856
1533,28882321.086319496
1557,28882321.086319496
2228,3477500.5837296077
2366,1697033.397647405
4114,47878440.91964137
4126,16606712.849738675
4162,14199365.105798256
4210,26644567.25719241
4236,727318235.4702187
4348,0.0
4473,378906.7053722447
2,2, 1, 2, 0, 9, 0.00,60.00,Friday
11,316107615.81617787
47,126039058.57671359
71,51648658.57671371
346,74390399.99999988
993,112981499.99999987
1017,112981499.99999987
1497,597430325.6117025
1533,285108.16507584266
1557,285108.16507584266
2228,4703946.669405856
2366,2474285.243693465
4114,44865596.275163959
4126,16519577.605455209
4162,14199365.105798256
4210,27249355.06396164
4236,594670932.2029332
4348,0.0
4473,268159.230932906
2,2, 1, 2, 0,10, 0.00,60.00,Friday
11,389689436.35406687
47,151182108.9867618
71,76791708.98676184
346,74390399.99999988
993,143958059.99999995
1017,143958059.99999995
1497,528080402.9167871
1533,285108.16507584266
1557,285108.16507584266
2228,7255847.759578523
2366,2973114.752464534
4114,44282524.11538473
4126,16563788.65595242
4162,14199365.105798256
4210,42768920.41987168
4236,524822179.9992468
4348,0.0
4473,241975.07247023317
2,2, 1, 2, 0,11, 0.00,60.00,Friday
11,351224652.9502579
47,127790575.35014604
71,74848975.35014606
346,52941599.9999999
993,122509259.99999996
1017,122509259.99999996
1497,540545203.4331126
1533,513194.69713651677
1557,513194.69713651677
2228,8072994.591247538
2366,3524218.516467391
4114,44908907.91279157
4126,16596393.466817899
4162,14199365.105798256
4210,47699413.132524628
4236,536507790.2195088
4348,0.0
4473,243501.96354819963
2,2, 1, 2, 0,12, 0.00,60.00,Friday
11,352690987.16783967
47,126223571.11511801
71,73281971.11511803
346,52941599.9999999
993,122509259.99999996
1017,122509259.99999996
1497,502056386.7698332
1533,11952079.865633984
1557,11952079.865633984
2228,12707961.185160326
2366,4088023.5196225356
4114,42888479.60290452
4126,16807504.470794135
4162,14199365.105798256
4210,48118288.47886123
4236,486016283.38457676
4348,0.0
4473,243426.78579564524
2,2, 1, 2, 0,13, 0.00,60.00,Friday
11,326097434.2943249
47,125190520.36212494
71,72248920.36212495
346,52941599.9999999
993,122509259.99999996
1017,122509259.99999996
1497,406071695.78060016
1533,11952079.865633984
1557,11952079.865633984
2228,12851392.34448659
2366,4765823.391605854
4114,39901296.42045958
4126,16882475.903829606
4162,14199365.105798256
4210,25419201.769679879
4236,389353792.52336028
4348,0.0
4473,225763.39757391317
2,2, 1, 2, 0,14, 0.00,60.00,Friday
11,316255492.88488546
47,124624973.9859934
71,71683373.98599342
346,52941599.9999999
993,122509259.99999996
1017,122509259.99999996
1497,302912037.47269549
1533,513194.69713651677
1557,513194.69713651677
2228,12976466.35634359
2366,4443572.795035917
4114,37154782.929239269
4126,16932793.27855049
4162,14199365.105798256
4210,18777114.635654734
4236,297955269.98052307
4348,0.0
4473,212894.97765451496
2,2, 1, 2, 0,15, 0.00,60.00,Friday
11,317115855.71301659
47,124704598.97704515
71,71762998.97704518
346,52941599.9999999
993,122509259.99999996
1017,122509259.99999996
1497,309101450.16543158
1533,427662.2476137639
1557,427662.2476137639
2228,10922848.563352682
2366,3702738.9481521158
4114,36990100.127977747
4126,16998753.230383077
4162,14199365.105798256
4210,21772655.70407696
4236,304971048.9696657
4348,0.0
4473,216392.3405640813
2,2, 1, 2, 0,16, 0.00,60.00,Friday
11,330928568.56344738
47,124782661.78840523
71,71841061.78840524
346,52941599.9999999
993,122509259.99999996
1017,122509259.99999996
1497,342931895.11595967
1533,427662.2476137639
1557,427662.2476137639
2228,9308714.273057737
2366,3504132.6348466358
4114,37794651.108182128
4126,17315502.051018545
4162,14199365.105798256
4210,36306433.32700229
4236,339000100.2334993
4348,0.0
4473,226848.06680003013
2,2, 1, 2, 0,17, 0.00,60.00,Friday
11,344700345.27407529
47,128617177.98763688
71,75675577.9876369
346,52941599.9999999
993,122509259.99999996
1017,122509259.99999996
1497,398304185.65822616
1533,29024875.168857416
1557,29024875.168857416
2228,9666341.25611097
2366,3628807.727252131
4114,38739266.470792379
4126,17301161.42479107
4162,14199365.105798256
4210,44937942.721990469
4236,365650502.76211658
4348,0.0
4473,230356.8375446972
2,2, 1, 2, 0,18, 0.00,60.00,Friday
11,338457808.9485448
47,123776342.99999996
71,70834742.99999997
346,52941599.9999999
993,118102859.99999997
1017,118102859.99999997
1497,433171269.6869565
1533,29024875.168857416
1557,29024875.168857416
2228,9983538.678692779
2366,3313325.8194919426
4114,40177043.86924124
4126,16962528.216363234
4162,14199365.105798256
4210,46189929.25587262
4236,400833068.6986071
4348,0.0
4473,228094.14473832187
2,2, 1, 2, 0,19, 0.00,60.00,Friday
11,371469028.06941786
47,143344268.99999986
71,47505068.99999999
346,95839199.99999984
993,135564839.99999989
1017,135564839.99999989
1497,373326719.1638127
1533,28597212.921243654
1557,28597212.921243654
2228,8931117.774206926
2366,3024801.502557625
4114,36666594.25328186
4126,16689786.129164357
4162,14199365.105798256
4210,46723979.57635018
4236,341704704.74001148
4348,0.0
4473,238227.46557927427
2,2, 1, 2, 0,20, 0.00,60.00,Friday
11,427798614.9385293
47,171942668.99999974
71,47505068.99999999
346,124437599.9999998
993,164163239.99999974
1017,164163239.99999974
1497,315602384.67078819
1533,0.0
1557,0.0
2228,7416703.180035976
2366,2589593.987408421
4114,34878193.46044845
4126,16555792.734135086
4162,14199365.105798256
4210,49150417.05433732
4236,313012790.68337979
4348,0.0
4473,247392.24370803915
2,2, 1, 2, 0,21, 0.00,60.00,Friday
11,440940963.1861422
47,180270629.9999997
71,41533829.999999988
346,138736799.9999998
993,169616699.99999974
1017,169616699.99999974
1497,305926788.6498823
1533,0.0
1557,0.0
2228,7246005.0982410409
2366,2740097.8754859969
4114,34015570.32324545
4126,16519577.605455209
4162,14199365.105798256
4210,49535902.17738591
4236,303186690.7743963
4348,0.0
4473,256155.58727024383
2,2, 1, 2, 0,22, 0.00,60.00,Friday
11,359011037.92216017
47,143777915.9999998
71,19340315.999999998
346,124437599.9999998
993,132085079.9999998
1017,132085079.9999998
1497,98218980.58843223
1533,0.0
1557,0.0
2228,4778121.533849044
2366,1745400.043607668
4114,28957241.751782698
4126,10490501.918585619
4162,14199365.105798256
4210,49412678.636528719
4236,96473580.54482454
4348,0.0
4473,0.0
2,2, 1, 2, 0,23, 0.00,60.00,Friday
11,264215454.9226172
47,96788438.99999984
71,5971238.999999999
346,90817199.99999984
993,90768869.99999985
1017,90768869.99999985
1497,1606946.580292103
1533,0.0
1557,0.0
2228,2559220.967846303
2366,1606946.580292103
4114,24689867.024383874
4126,10490501.918585619
4162,14199365.105798256
4210,49409057.93038731
4236,0.0
4348,0.0
4473,0.0
2,2, 1, 2, 0,24, 0.00,60.00,Friday
11,175920406.24352549
47,52754678.99999992
71,4835078.999999999
346,47919599.99999992
993,47320469.999999929
1017,47320469.999999929
1497,1093217.6004920048
1533,0.0
1557,0.0
2228,1630512.26961627
2366,1093217.6004920048
4114,24689867.024383874
4126,10490501.918585619
4162,14199365.105798256
4210,49524877.9495254
4236,0.0
4348,0.0
4473,0.0
2,3, 1, 3, 0, 1, 0.00,60.00,Saturday
11,68316864.32783337
47,24156278.99999996
71,4835078.999999999
346,19321199.999999968
993,18722069.99999997
1017,18722069.99999997
1497,7578107.983187022
1533,0.0
1557,0.0
2228,2512264.031013241
2366,1507048.5740937505
4114,22926251.29682018
4126,8458341.339612136
4162,14199365.105798256
4210,0.0
4236,6071059.409093272
4348,0.0
4473,0.0
2,3, 1, 3, 0, 2, 0.00,60.00,Saturday
11,69458947.30275004
47,24156278.99999996
71,4835078.999999999
346,19321199.999999968
993,18722069.99999997
1017,18722069.99999997
1497,33640822.22236261
1533,0.0
1557,0.0
2228,2489331.605128737
2366,1231979.9869041348
4114,24091266.697621354
4126,8458341.339612136
4162,14199365.105798256
4210,0.0
4236,32408842.23545847
4348,0.0
4473,0.0
2,3, 1, 3, 0, 3, 0.00,60.00,Saturday
11,69809881.2200271
47,24156278.99999996
71,4835078.999999999
346,19321199.999999968
993,18722069.99999997
1017,18722069.99999997
1497,60971079.68583227
1533,0.0
1557,0.0
2228,1630229.5661536207
2366,1206651.8573789779
4114,25301302.653873557
4126,8458341.339612136
4162,14199365.105798256
4210,0.0
4236,59764427.82845329
4348,0.0
4473,0.0
2,3, 1, 3, 0, 4, 0.00,60.00,Saturday
11,69604991.70963376
47,24156278.99999996
71,4835078.999999999
346,19321199.999999968
993,18722069.99999997
1017,18722069.99999997
1497,75109006.62118069
1533,0.0
1557,0.0
2228,800829.9573290997
2366,1226127.143335855
4114,25925812.752304704
4126,8458341.339612136
4162,14199365.105798256
4210,0.0
4236,73882879.47784482
4348,0.0
4473,0.0
2,3, 1, 3, 0, 5, 0.00,60.00,Saturday
11,71675277.0026381
47,24156278.99999996
71,4835078.999999999
346,19321199.999999968
993,18722069.99999997
1017,18722069.99999997
1497,103693203.87634523
1533,0.0
1557,0.0
2228,1601965.5788114193
2366,1118356.3271692855
4114,27194962.42382675
4126,8458341.339612136
4162,14199365.105798256
4210,0.0
4236,102574847.54917597
4348,0.0
4473,0.0
2,3, 1, 3, 0, 6, 0.00,60.00,Saturday
11,181666031.95802713
47,52754678.99999992
71,4835078.999999999
346,47919599.99999992
993,47320469.999999929
1017,47320469.999999929
1497,90900564.53905523
1533,0.0
1557,0.0
2228,1602332.1802959815
2366,1094866.0826048784
4114,30549439.85349849
4126,12385952.971666646
4162,14199365.105798256
4210,49389336.54137796
4236,89805698.45645035
4348,0.0
4473,49774.38285478973
2,3, 1, 3, 0, 7, 0.00,60.00,Saturday
11,273090982.66707518
47,80361638.99999988
71,5971238.999999999
346,74390399.99999988
993,69320069.9999999
1017,69320069.9999999
1497,1257510303.0654438
1533,28597212.921243654
1557,28597212.921243654
2228,1022450.4931494836
2366,1269791.659448747
4114,71813925.10220939
4126,23922499.999771317
4162,14199365.105798256
4210,49444288.113876868
4236,1227643298.4847513
4348,0.0
4473,1128609.9578396376
2,3, 1, 3, 0, 8, 0.00,60.00,Saturday
11,263309443.2695202
47,84041502.52443746
71,9651102.524437594
346,74390399.99999988
993,73192139.99999988
1017,73192139.99999988
1497,888790280.9525163
1533,28597212.921243654
1557,28597212.921243654
2228,4319289.354285601
2366,1997322.7472651038
4114,51720559.268291059
4126,16545147.609072242
4162,14199365.105798256
4210,49539674.99182779
4236,858195745.2840074
4348,0.0
4473,496277.13067837039
2,3, 1, 3, 0, 9, 0.00,60.00,Saturday
11,295295779.33387687
47,102347083.2799686
71,27956683.279968744
346,74390399.99999988
993,90883619.99999987
1017,90883619.99999987
1497,689993141.1073632
1533,285108.16507584266
1557,285108.16507584266
2228,5317684.159371888
2366,2065217.8549062014
4114,46795325.065141078
4126,16519577.605455209
4162,14199365.105798256
4210,49612804.855472858
4236,687642815.0873813
4348,0.0
4473,339261.9739226104
2,3, 1, 3, 0,10, 0.00,60.00,Saturday
11,331661863.54462417
47,118647986.80372595
71,44257586.80372608
346,74390399.99999988
993,114116039.99999988
1017,114116039.99999988
1497,557387337.9837614
1533,285108.16507584266
1557,285108.16507584266
2228,5302246.358135434
2366,2441059.6852662714
4114,43655778.257437158
4126,16563811.670140706
4162,14199365.105798256
4210,49662460.71025701
4236,554661170.1334193
4348,0.0
4473,277351.4150686704
2,3, 1, 3, 0,11, 0.00,60.00,Saturday
11,320665537.5563164
47,116589354.47742993
71,63647754.47742994
346,52941599.9999999
993,115899659.99999997
1017,115899659.99999997
1497,443310915.4428481
1533,513194.69713651677
1557,513194.69713651677
2228,9334559.988309663
2366,3007212.0909209807
4114,40947637.01554825
4126,16653730.156858869
4162,14199365.105798256
4210,37653669.93041186
4236,439790508.6547906
4348,0.0
4473,240656.14461675095
2,3, 1, 3, 0,12, 0.00,60.00,Saturday
11,304802353.840119
47,116599803.36212968
71,63658203.362129699
346,52941599.9999999
993,115899659.99999997
1017,115899659.99999997
1497,361640487.51891
1533,11952079.865633984
1557,11952079.865633984
2228,11055017.239176792
2366,3671918.4384834275
4114,38228917.111863
4126,16882060.791064077
4162,14199365.105798256
4210,22797039.438595185
4236,346016489.2147926
4348,0.0
4473,221916.68835448486
2,3, 1, 3, 0,13, 0.00,60.00,Saturday
11,292917610.14899018
47,113432809.21119537
71,60491209.211195398
346,52941599.9999999
993,114247259.99999997
1017,114247259.99999997
1497,285467943.92660626
1533,11952079.865633984
1557,11952079.865633984
2228,13132132.869209327
2366,3793905.6247971469
4114,36468721.713275309
4126,16965999.24951898
4162,14199365.105798256
4210,15427027.855456433
4236,269721958.4361751
4348,0.0
4473,209658.49985382855
2,3, 1, 3, 0,14, 0.00,60.00,Saturday
11,288360778.61785688
47,113861270.1438429
71,60919670.14384292
346,52941599.9999999
993,114247259.99999997
1017,114247259.99999997
1497,235590917.47322495
1533,513194.69713651677
1557,513194.69713651677
2228,12336761.85353117
2366,3800637.7762376687
4114,35408764.389430839
4126,17012354.350120479
4162,14199365.105798256
4210,12301012.060940177
4236,231277084.99985076
4348,0.0
4473,205710.17011193414
2,3, 1, 3, 0,15, 0.00,60.00,Saturday
11,285063090.1883835
47,113962036.60620806
71,61020436.606208089
346,52941599.9999999
993,114247259.99999997
1017,114247259.99999997
1497,194831945.5525868
1533,427662.2476137639
1557,427662.2476137639
2228,10249084.896614775
2366,3116893.22666407
4114,34474814.41251278
4126,17167529.622093567
4162,14199365.105798256
4210,11926749.423823845
4236,191287390.078309
4348,0.0
4473,203144.84922413535
2,3, 1, 3, 0,16, 0.00,60.00,Saturday
11,284211136.13319459
47,113533249.74774634
71,60591649.747746359
346,52941599.9999999
993,114247259.99999997
1017,114247259.99999997
1497,178974557.0187148
1533,427662.2476137639
1557,427662.2476137639
2228,10108103.652852312
2366,3090581.357908342
4114,34048121.63977818
4126,17425391.65545679
4162,14199365.105798256
4210,12071644.999783857
4236,175456313.4131927
4348,0.0
4473,202756.09303402116
2,3, 1, 3, 0,17, 0.00,60.00,Saturday
11,288492202.64646705
47,117338283.52174723
71,64396683.52174725
346,52941599.9999999
993,114247259.99999997
1017,114247259.99999997
1497,211265857.8260745
1533,29024875.168857416
1557,29024875.168857416
2228,9972284.247831762
2366,3300427.6346272907
4114,34409028.78947726
4126,17635922.835028057
4162,14199365.105798256
4210,12322512.461925887
4236,178940555.0225898
4348,0.0
4473,202833.6254850161
2,3, 1, 3, 0,18, 0.00,60.00,Saturday
11,285214601.8303752
47,111937382.99999996
71,64017782.99999998
346,47919599.99999992
993,113145659.99999997
1017,113145659.99999997
1497,270010859.22260108
1533,28597212.921243654
1557,28597212.921243654
2228,9835924.93338941
2366,2912473.277719677
4114,35994704.097358558
4126,17143300.82167984
4162,14199365.105798256
4210,14096122.192120228
4236,238501173.02363778
4348,0.0
4473,204807.6075072026
2,3, 1, 3, 0,19, 0.00,60.00,Saturday
11,314008378.3703521
47,128942549.99999987
71,38125349.999999988
346,90817199.99999984
993,125066699.99999988
1017,125066699.99999988
1497,252911076.9433481
1533,28597212.921243654
1557,28597212.921243654
2228,9577846.450253668
2366,2764734.0270748885
4114,33700019.227395478
4126,16520400.71796254
4162,14199365.105798256
4210,16511635.056370737
4236,221549129.99502958
4348,0.0
4473,209627.63633245379
2,3, 1, 3, 0,20, 0.00,60.00,Saturday
11,318573823.9643692
47,142745273.9999998
71,23329673.999999994
346,119415599.9999998
993,138176819.9999998
1017,138176819.9999998
1497,222567915.67245785
1533,0.0
1557,0.0
2228,7589459.413644137
2366,2524899.91718222
4114,29805965.917055325
4126,14487417.026481724
4162,14199365.105798256
4210,35011.990564774744
4236,220043015.7552756
4348,0.0
4473,221292.6431052946
2,3, 1, 3, 0,21, 0.00,60.00,Saturday
11,345469897.029304
47,157044473.99999977
71,23329673.999999994
346,133714799.99999979
993,152476019.99999977
1017,152476019.99999977
1497,262130137.72543
1533,0.0
1557,0.0
2228,6008794.666024697
2366,2344878.767464266
4114,29653013.983652057
4126,14487417.026481724
4162,14199365.105798256
4210,44003.92446187184
4236,259785258.95796574
4348,0.0
4473,243590.45516575047