Program Version,EnergyPlus, Version 9.0.1-bb7ca4f0da, YMD=2019.12.17 17:07
1,5,Environment Title[],Latitude[deg],Longitude[deg],Time Zone[],Elevation[m]
2,8,Day of Simulation[],Month[],Day of Month[],DST Indicator[1=yes 0=no],Hour[],StartMinute[],EndMinute[],DayType
3,5,Cumulative Day of Simulation[],Month[],Day of Month[],DST Indicator[1=yes 0=no],DayType  ! When Daily Meters Requested
4,2,Cumulative Days of Simulation[],Month[]  ! When Monthly Meters Requested
5,1,Cumulative Days of Simulation[] ! When Run Period Meters Requested
6,1,Calendar Year of Simulation[] ! When Annual Meters Requested
1017,1,Receptacle:InteriorEquipment:Electricity [J] !Hourly
4210,1,Heating:Electricity [J] !Hourly
2228,1,WaterSystems:Electricity [J] !Hourly
47,1,InteriorLights:Electricity [J] !Hourly
11,1,Electricity:Facility [J] !Hourly
993,1,InteriorEquipment:Electricity [J] !Hourly
4114,1,Fans:Electricity [J] !Hourly
2366,1,WaterSystems:Gas [J] !Hourly
4473,1,Pumps:Electricity [J] !Hourly
4348,1,Cooling:Electricity [J] !Hourly
1497,1,Gas:Facility [J] !Hourly
1533,1,InteriorEquipment:Gas [J] !Hourly
4236,1,Heating:Gas [J] !Hourly
1557,1,Receptacle:InteriorEquipment:Gas [J] !Hourly
71,1,ComplianceLtg:InteriorLights:Electricity [J] !Hourly
346,1,NonComplianceLtg:InteriorLights:Electricity [J] !Hourly
4126,1,General:Fans:Electricity [J] !Hourly
4162,1,ProcessMotors:Fans:Electricity [J] !Hourly
End of Data Dictionary
1,OAKLAND_724930_CZ2010,  37.72,-122.22,  -8.00,   2.00
2,1, 1, 1, 0, 1, 0.00,60.00,Holiday
11,66341734.27394022
47,24156278.99999996
71,4835078.999999999
346,19321199.999999968
993,18722069.99999997
1017,18722069.99999997
1497,1042785.2739396659
1533,0.0
1557,0.0
2228,805678.8285298817
2366,1042785.2739396659
4114,22657706.445410395
4126,8458341.339612136
4162,14199365.105798256
4210,0.0
4236,0.0
4348,0.0
4473,0.0
2,1, 1, 1, 0, 2, 0.00,60.00,Holiday
11,67147204.39189855
47,24156278.99999996
71,4835078.999999999
346,19321199.999999968
993,18722069.99999997
1017,18722069.99999997
1497,1042773.4128829227
1533,0.0
1557,0.0
2228,1611148.9464882045
2366,1042773.4128829227
4114,22657706.445410395
4126,8458341.339612136
4162,14199365.105798256
4210,0.0
4236,0.0
4348,0.0
4473,0.0
2,1, 1, 1, 0, 3, 0.00,60.00,Holiday
11,67147231.88105083
47,24156278.99999996
71,4835078.999999999
346,19321199.999999968
993,18722069.99999997
1017,18722069.99999997
1497,1303444.6649411242
1533,0.0
1557,0.0
2228,1611176.4356404823
2366,1303444.6649411242
4114,22657706.445410395
4126,8458341.339612136
4162,14199365.105798256
4210,0.0
4236,0.0
4348,0.0
4473,0.0
2,1, 1, 1, 0, 4, 0.00,60.00,Holiday
11,66337636.691555779
47,24156278.99999996
71,4835078.999999999
346,19321199.999999968
993,18722069.99999997
1017,18722069.99999997
1497,1037337.7968038314
1533,0.0
1557,0.0
2228,801581.246145438
2366,1037337.7968038314
4114,22657706.445410395
4126,8458341.339612136
4162,14199365.105798256
4210,0.0
4236,0.0
4348,0.0
4473,0.0
2,1, 1, 1, 0, 5, 0.00,60.00,Holiday
11,67154874.79290392
47,24156278.99999996
71,4835078.999999999
346,19321199.999999968
993,18722069.99999997
1017,18722069.99999997
1497,1568741.2774068008
1533,0.0
1557,0.0
2228,1595324.0417141966
2366,1037576.5064945298
4114,22681201.751189773
4126,8458341.339612136
4162,14199365.105798256
4210,0.0
4236,531164.7709122709
4348,0.0
4473,0.0
2,1, 1, 1, 0, 6, 0.00,60.00,Holiday
11,136601503.42945207
47,52754678.99999992
71,4835078.999999999
346,47919599.99999992
993,47320469.999999929
1017,47320469.999999929
1497,1440655.883805246
1533,0.0
1557,0.0
2228,1598013.9496881725
2366,1305585.3162663535
4114,24695841.675678366
4126,10490501.918585619
4162,14199365.105798256
4210,10232498.804085566
4236,135070.56753889269
4348,0.0
4473,0.0
2,1, 1, 1, 0, 7, 0.00,60.00,Holiday
11,195026831.00969333
47,74203478.99999988
71,4835078.999999999
346,69368399.9999999
993,68769269.9999999
1017,68769269.9999999
1497,304745052.1670612
1533,28597212.921243654
1557,28597212.921243654
2228,805526.0038014546
2366,1042791.3599673802
4114,41127575.97621829
4126,14804234.603109543
4162,14199365.105798256
4210,10036386.746360612
4236,275105047.8858502
4348,0.0
4473,84593.2833131467
2,1, 1, 1, 0, 8, 0.00,60.00,Holiday
11,188815563.2029537
47,74200608.60198428
71,4832208.601984404
346,69368399.9999999
993,68769269.9999999
1017,68769269.9999999
1497,175523105.2419856
1533,28597212.921243654
1557,28597212.921243654
2228,2478520.374800427
2366,1323251.8058978292
4114,32986892.60274788
4126,12388987.430519445
4162,14199365.105798256
4210,10330527.617436329
4236,145602640.51484413
4348,0.0
4473,49744.005984876494
2,1, 1, 1, 0, 9, 0.00,60.00,Holiday
11,207203314.66611294
47,77865889.21631558
71,8497489.216315713
346,69368399.9999999
993,72641339.99999988
1017,72641339.99999988
1497,463600058.3977046
1533,0.0
1557,0.0
2228,2521552.7560615295
2366,1336869.871806938
4114,43070027.29290558
4126,24017939.8786065
4162,14199365.105798256
4210,10251919.378795568
4236,462263188.5258977
4348,0.0
4473,852586.0220348106
2,1, 1, 1, 0,10, 0.00,60.00,Holiday
11,198613666.6759621
47,77826450.95352715
71,8458050.95352728
346,69368399.9999999
993,72641339.99999988
1017,72641339.99999988
1497,364950957.67181906
1533,0.0
1557,0.0
2228,2565978.9449587867
2366,1350392.0071138149
4114,35255766.68349551
4126,16576041.947039156
4162,14199365.105798256
4210,10042479.96866143
4236,363600565.66470518
4348,0.0
4473,281650.1253192951
2,1, 1, 1, 0,11, 0.00,60.00,Holiday
11,204331812.71177257
47,78180106.1888814
71,30260506.18888143
346,47919599.99999992
993,74424959.99999996
1017,74424959.99999996
1497,291879278.7156077
1533,0.0
1557,0.0
2228,5915849.450785194
2366,2049062.7418641367
4114,36017882.942982938
4126,16519577.605455207
4162,14199365.105798256
4210,9581716.983320939
4236,289830215.97374358
4348,0.0
4473,211297.14580215846
2,1, 1, 1, 0,12, 0.00,60.00,Holiday
11,203577010.3910133
47,78099094.36329484
71,30179494.363294875
346,47919599.99999992
993,74424959.99999996
1017,74424959.99999996
1497,269749970.7642184
1533,11438885.168497468
1557,11438885.168497468
2228,6039404.002636439
2366,2380305.3811703377
4114,35361354.511303279
4126,16519577.605455207
4162,14199365.105798256
4210,9446769.309579246
4236,255930780.21455056
4348,0.0
4473,205428.20419955499
2,1, 1, 1, 0,13, 0.00,60.00,Holiday
11,231518061.01710946
47,89011518.37661559
71,41091918.37661559
346,47919599.99999992
993,89913239.99999997
1017,89913239.99999997
1497,222402362.03105916
1533,11438885.168497468
1557,11438885.168497468
2228,7433390.830396048
2366,2423097.5287719808
4114,35126477.52421577
4126,16519577.605455207
4162,14199365.105798256
4210,9832963.652501379
4236,208540379.3337897
4348,0.0
4473,200470.6333807555
2,1, 1, 1, 0,14, 0.00,60.00,Holiday
11,230843214.38219748
47,89110754.24198337
71,41191154.241983387
346,47919599.99999992
993,89913239.99999997
1017,89913239.99999997
1497,182170647.66259028
1533,0.0
1557,0.0
2228,7434080.35195112
2366,2461124.3059987288
4114,34626904.98545365
4126,16519577.605455207
4162,14199365.105798256
4210,9558903.527176446
4236,179709523.35659156
4348,0.0
4473,199331.2756329703
2,1, 1, 1, 0,15, 0.00,60.00,Holiday
11,229827013.15482445
47,89163584.23438885
71,41243984.23438886
346,47919599.99999992
993,89913239.99999997
1017,89913239.99999997
1497,162325387.45677913
1533,0.0
1557,0.0
2228,6972542.33831558
2366,2150741.8039859996
4114,34306595.75042534
4126,16519577.605455207
4162,14199365.105798256
4210,9272346.52145323
4236,160174645.6527931
4348,0.0
4473,198704.31024155607
2,1, 1, 1, 0,16, 0.00,60.00,Holiday
11,228688850.78884486
47,89062012.1973739
71,41142412.19737391
346,47919599.99999992
993,89913239.99999997
1017,89913239.99999997
1497,143113455.39499668
1533,0.0
1557,0.0
2228,6605438.082436564
2366,2423529.6534329729
4114,33596690.541118849
4126,16519577.605455207
4162,14199365.105798256
4210,9312873.020813834
4236,140689925.74156369
4348,0.0
4473,198596.9471018095
2,1, 1, 1, 0,17, 0.00,60.00,Holiday
11,230369758.6823724
47,89627792.82797772
71,41708192.827977757
346,47919599.99999992
993,89913239.99999997
1017,89913239.99999997
1497,175720603.6016465
1533,28597212.921243654
1557,28597212.921243654
2228,7515357.733241907
2366,2451307.858608175
4114,33497427.372408105
4126,16519577.605455207
4162,14199365.105798256
4210,9617080.697087532
4236,144672082.8217947
4348,0.0
4473,198860.0516572319
2,1, 1, 1, 0,18, 0.00,60.00,Holiday
11,204602057.3696794
47,78647111.99999994
71,30727511.99999999
346,47919599.99999992
993,74424959.99999996
1017,74424959.99999996
1497,232250908.08906196
1533,28597212.921243654
1557,28597212.921243654
2228,7273629.097190781
2366,2203939.827101413
4114,34127669.646149847
4126,16519577.605455207
4162,14199365.105798256
4210,9927172.568172789
4236,201449755.3407169
4348,0.0
4473,201514.05816614157
2,1, 1, 1, 0,19, 0.00,60.00,Holiday
11,242916488.5544126
47,106749035.99999982
71,15931835.999999995
346,90817199.99999984
993,101834279.99999984
1017,101834279.99999984
1497,217184957.06152267
1533,28597212.921243654
1557,28597212.921243654
2228,4736727.27186841
2366,1912620.311791222
4114,29357719.25267274
4126,14487417.026481722
4162,14199365.105798256
4210,30706.702428914454
4236,186675123.8284878
4348,0.0
4473,208019.32744282008
2,1, 1, 1, 0,20, 0.00,60.00,Holiday
11,271619947.4164406
47,124250678.9999998
71,4835078.999999999
346,119415599.9999998
993,118816469.99999982
1017,118816469.99999982
1497,4204331.492880551
1533,0.0
1557,0.0
2228,5798761.9157916069
2366,2026574.5846441985
4114,22754036.50064925
4126,8458341.339612136
4162,14199365.105798256
4210,0.0
4236,2177756.908236353
4348,0.0
4473,0.0
2,1, 1, 1, 0,21, 0.00,60.00,Holiday
11,298372287.60308358
47,138549878.9999998
71,4835078.999999999
346,133714799.99999979
993,133115669.99999979
1017,133115669.99999979
1497,2809495.3939158169
1533,0.0
1557,0.0
2228,3999117.7101495156
2366,1681066.092792706
4114,22707620.892934324
4126,8458341.339612136
4162,14199365.105798256
4210,0.0
4236,1128429.3011231109
4348,0.0
4473,0.0
2,1, 1, 1, 0,22, 0.00,60.00,Holiday
11,268992699.2507243
47,124250678.9999998
71,4835078.999999999
346,119415599.9999998
993,118816469.99999982
1017,118816469.99999982
1497,4377893.645719437
1533,0.0
1557,0.0
2228,3147118.3180157986
2366,1648623.1558533763
4114,22778431.93270877
4126,8458341.339612136
4162,14199365.105798256
4210,0.0
4236,2729270.48986606
4348,0.0
4473,0.0
2,1, 1, 1, 0,23, 0.00,60.00,Holiday
11,211006547.2431569
47,95652278.99999984
71,4835078.999999999
346,90817199.99999984
993,90218069.99999985
1017,90218069.99999985
1497,1323208.160680652
1533,0.0
1557,0.0
2228,2478491.7977467749
2366,1323208.160680652
4114,22657706.445410395
4126,8458341.339612136
4162,14199365.105798256
4210,0.0
4236,0.0
4348,0.0
4473,0.0
2,1, 1, 1, 0,24, 0.00,60.00,Holiday
11,123531798.11596233
47,52754678.99999992
71,4835078.999999999
346,47919599.99999992
993,47320469.999999929
1017,47320469.999999929
1497,1037752.958395977
1533,0.0
1557,0.0
2228,798942.6705519741
2366,1037752.958395977
4114,22657706.445410395
4126,8458341.339612136
4162,14199365.105798256
4210,0.0
4236,0.0
4348,0.0
4473,0.0
2,2, 1, 2, 0, 1, 0.00,60.00,Friday
11,66322096.684071909
47,24156278.99999996
71,4835078.999999999
346,19321199.999999968
993,18722069.99999997
1017,18722069.99999997
1497,1029500.5605017045
1533,0.0
1557,0.0
2228,786041.2386615692
2366,1029500.5605017045
4114,22657706.445410395
4126,8458341.339612136
4162,14199365.105798256
4210,0.0
4236,0.0
4348,0.0
4473,0.0
2,2, 1, 2, 0, 2, 0.00,60.00,Friday
11,67146160.27303104
47,24156278.99999996
71,4835078.999999999
346,19321199.999999968
993,18722069.99999997
1017,18722069.99999997
1497,1605130.2935843464
1533,0.0
1557,0.0
2228,1584873.3853098308
2366,1034716.2116955562
4114,22682937.887721264
4126,8458341.339612136
4162,14199365.105798256
4210,0.0
4236,570414.0818887903
4348,0.0
4473,0.0
2,2, 1, 2, 0, 3, 0.00,60.00,Friday
11,66541252.94493762
47,24156278.99999996
71,4835078.999999999
346,19321199.999999968
993,18722069.99999997
1017,18722069.99999997
1497,5845037.22678845
1533,0.0
1557,0.0
2228,792426.750184274
2366,1034873.6636766717
4114,22870477.194753395
4126,8458341.339612136
4162,14199365.105798256
4210,0.0
4236,4810163.563111778
4348,0.0
4473,0.0
2,2, 1, 2, 0, 4, 0.00,60.00,Friday
11,67286313.46173558
47,24156278.99999996
71,4835078.999999999
346,19321199.999999968
993,18722069.99999997
1017,18722069.99999997
1497,22830440.258089357
1533,0.0
1557,0.0
2228,785941.1291884823
2366,1029891.8150713564
4114,23622023.33254715
4126,8458341.339612136
4162,14199365.105798256
4210,0.0
4236,21800548.443018
4348,0.0
4473,0.0
2,2, 1, 2, 0, 5, 0.00,60.00,Friday
11,68065539.65541849
47,24156278.99999996
71,4835078.999999999
346,19321199.999999968
993,18722069.99999997
1017,18722069.99999997
1497,40445504.28700192
1533,0.0
1557,0.0
2228,785990.6435634908
2366,1029912.435950989
4114,24401200.011855067
4126,8458341.339612136
4162,14199365.105798256
4210,0.0
4236,39415591.85105093
4348,0.0
4473,0.0
2,2, 1, 2, 0, 6, 0.00,60.00,Friday
11,154749918.85042758
47,53890838.99999992
71,5971238.999999999
346,47919599.99999992
993,47871269.999999929
1017,47871269.999999929
1497,32544211.42191587
1533,0.0
1557,0.0
2228,786095.7898097289
2366,1295228.1824457423
4114,29836962.34699418
4126,14275257.222876547
4162,14199365.105798256
4210,22265198.06522684
4236,31248983.239470129
4348,0.0
4473,99553.64839685234
2,2, 1, 2, 0, 7, 0.00,60.00,Friday
11,236620569.5861712
47,80361638.99999988
71,5971238.999999999
346,74390399.99999988
993,69320069.9999999
1017,69320069.9999999
1497,1000113358.0299977
1533,28597212.921243654
1557,28597212.921243654
2228,786127.6714765842
2366,1034058.7794738128
4114,62709359.60326385
4126,24114175.641327338
4162,14199365.105798256
4210,22350328.643866019
4236,970482086.3292801
4348,0.0
4473,1093044.6675649402
2,2, 1, 2, 0, 8, 0.00,60.00,Friday
11,249266438.59652598
47,95991532.16376847
71,21601132.163768598
346,74390399.99999988
993,83139479.99999988
1017,83139479.99999988
1497,660886282.1831226
1533,28882321.086319496
1557,28882321.086319496
2228,3453079.9471256129
2366,1686204.1928718882
4114,44661476.91405966
4126,16553999.159294423
4162,14199365.105798256
4210,21696467.504839958
4236,630317756.9039313
4348,0.0
4473,324402.0667323264
2,2, 1, 2, 0, 9, 0.00,60.00,Friday
11,301129548.21147957
47,125950306.21617292
71,51559906.216173049
346,74390399.99999988
993,112981499.99999987
1017,112981499.99999987
1497,474633833.1572226
1533,285108.16507584266
1557,285108.16507584266
2228,4650331.748686728
2366,2444634.6344382727
4114,41495779.47288455
4126,16519577.605455207
4162,14199365.105798256
4210,15820632.23256671
4236,471904090.3577085
4348,0.0
4473,230998.54116866209
2,2, 1, 2, 0,10, 0.00,60.00,Friday
11,353532388.4534979
47,151016199.23281855
71,76625799.23281859
346,74390399.99999988
993,143958059.99999995
1017,143958059.99999995
1497,359427205.400503
1533,285108.16507584266
1557,285108.16507584266
2228,6109395.483774269
2366,2890245.731667268
4114,39896533.68287059
4126,16563732.915834362
4162,14199365.105798256
4210,12344013.587794099
4236,356251851.50375989
4348,0.0
4473,208186.46624055349
2,2, 1, 2, 0,11, 0.00,60.00,Friday
11,312846015.65551438
47,128511487.69860499
71,75569887.69860502
346,52941599.9999999
993,122509259.99999996
1017,122509259.99999996
1497,368250709.3980882
1533,513194.69713651677
1557,513194.69713651677
2228,8708077.655396335
2366,3147024.654756045
4114,40570869.79719753
4126,16598551.304288239
4162,14199365.105798256
4210,12339273.220489689
4236,364590490.04619577
4348,0.0
4473,207047.28382593452
2,2, 1, 2, 0,12, 0.00,60.00,Friday
11,314501442.58206108
47,128753614.52573964
71,75812014.52573966
346,52941599.9999999
993,122509259.99999996
1017,122509259.99999996
1497,343534287.39300158
1533,11952079.865633984
1557,11952079.865633984
2228,11415583.61438426
2366,3963330.546029212
4114,39834283.37615505
4126,16815727.765157865
4162,14199365.105798256
4210,11784531.54874529
4236,327618876.9813384
4348,0.0
4473,204169.5170369087
2,2, 1, 2, 0,13, 0.00,60.00,Friday
11,309835862.96053156
47,126635535.36213184
71,73693935.36213187
346,52941599.9999999
993,122509259.99999996
1017,122509259.99999996
1497,263824738.24456
1533,11952079.865633984
1557,11952079.865633984
2228,12178137.818549075
2366,4627739.853119648
4114,37318160.76289232
4126,16884515.59126932
4162,14199365.105798256
4210,10993695.468215535
4236,247244918.52580638
4348,0.0
4473,201073.54874286609
2,2, 1, 2, 0,14, 0.00,60.00,Friday
11,309139617.32109919
47,127085063.96226895
71,74143463.96226897
346,52941599.9999999
993,122509259.99999996
1017,122509259.99999996
1497,204884125.04490076
1533,513194.69713651677
1557,513194.69713651677
2228,12937228.438064065
2366,4251042.938117833
4114,35836215.598377067
4126,16921186.786094525
4162,14199365.105798256
4210,10572068.145507573
4236,200119887.4096464
4348,0.0
4473,199781.17688163307
2,2, 1, 2, 0,15, 0.00,60.00,Friday
11,306126486.32977887
47,127508596.39647734
71,74566996.39647736
346,52941599.9999999
993,122509259.99999996
1017,122509259.99999996
1497,190625476.78825153
1533,427662.2476137639
1557,427662.2476137639
2228,10051749.355239112
2366,3616814.381701945
4114,35235299.6741088
4126,16968458.083268797
4162,14199365.105798256
4210,10621777.794276512
4236,186581000.15893582
4348,0.0
4473,199803.1096771548
2,2, 1, 2, 0,16, 0.00,60.00,Friday
11,299934868.6807569
47,125070133.52972892
71,72128533.52972894
346,52941599.9999999
993,122509259.99999996
1017,122509259.99999996
1497,145808517.29647584
1533,427662.2476137639
1557,427662.2476137639
2228,8601785.125832526
2366,3136961.5581451614
4114,33798012.24628122
4126,17280660.395268628
4162,14199365.105798256
4210,9756172.756102886
4236,142243893.4907169
4348,0.0
4473,199505.02281139187
2,2, 1, 2, 0,17, 0.00,60.00,Friday
11,303969387.784536
47,129184810.27662225
71,76243210.2766223
346,52941599.9999999
993,122509259.99999996
1017,122509259.99999996
1497,173457050.36718024
1533,29024875.168857416
1557,29024875.168857416
2228,9206367.850857409
2366,3625695.141999782
4114,33562061.494829218
4126,17222578.05171839
4162,14199365.105798256
4210,9307248.235857308
4236,140806480.05632306
4348,0.0
4473,199639.9263698831
2,2, 1, 2, 0,18, 0.00,60.00,Friday
11,297572385.9774207
47,123776342.99999996
71,70834742.99999997
346,52941599.9999999
993,118102859.99999997
1017,118102859.99999997
1497,214130326.88898636
1533,29024875.168857416
1557,29024875.168857416
2228,9670526.558501505
2366,3156932.9377509804
4114,34715369.059708099
4126,16923465.8363547
4162,14199365.105798256
4210,11106964.094985266
4236,181948518.7823779
4348,0.0
4473,200323.26422592256
2,2, 1, 2, 0,19, 0.00,60.00,Friday
11,331186532.9300304
47,143344268.99999986
71,47505068.99999999
346,95839199.99999984
993,135564839.99999989
1017,135564839.99999989
1497,175791582.4608696
1533,28597212.921243654
1557,28597212.921243654
2228,8574684.635168193
2366,2934203.7451283189
4114,32090586.135995788
4126,16668151.180400368
4162,14199365.105798256
4210,11410100.145170445
4236,144260165.79449768
4348,0.0
4473,202053.0136961901
2,2, 1, 2, 0,20, 0.00,60.00,Friday
11,385706870.3190441
47,171942668.99999974
71,47505068.99999999
346,124437599.9999998
993,164163239.99999974
1017,164163239.99999974
1497,129155707.06235075
1533,0.0
1557,0.0
2228,6712805.712504781
2366,2478398.94122235
4114,31099142.67717381
4126,16542701.66854532
4162,14199365.105798256
4210,11586570.587594044
4236,126677308.12112838
4348,0.0
4473,202442.3417718533
2,2, 1, 2, 0,21, 0.00,60.00,Friday
11,400335077.6919836
47,180270629.9999997
71,41533829.999999988
346,138736799.9999998
993,169616699.99999974
1017,169616699.99999974
1497,145395436.35961528
1533,0.0
1557,0.0
2228,7125114.856542321
2366,2491424.1792024068
4114,31033306.88512656
4126,16519577.605455207
4162,14199365.105798256
4210,12084368.588466987
4236,142904012.18041287
4348,0.0
4473,204957.3618481303
2,2, 1, 2, 0,22, 0.00,60.00,Friday
11,318534360.9323268
47,143777915.9999998
71,19340315.999999998
346,124437599.9999998
993,132085079.9999998
1017,132085079.9999998
1497,14717230.888855473
1533,0.0
1557,0.0
2228,4714101.180439763
2366,1988079.4649228203
4114,25252923.528514767
4126,10490501.918585619
4162,14199365.105798256
4210,12704340.22337261
4236,12729151.42393265
4348,0.0
4473,0.0
2,2, 1, 2, 0,23, 0.00,60.00,Friday
11,230156328.07068066
47,96788438.99999984
71,5971238.999999999
346,90817199.99999984
993,90768869.99999985
1017,90768869.99999985
1497,1346732.4002987757
1533,0.0
1557,0.0
2228,2543780.7992942526
2366,1346732.4002987757
4114,24689867.024383874
4126,10490501.918585619
4162,14199365.105798256
4210,15365371.247002786
4236,0.0
4348,0.0
4473,0.0
2,2, 1, 2, 0,24, 0.00,60.00,Friday
11,140767852.7391547
47,52754678.99999992
71,4835078.999999999
346,47919599.99999992
993,47320469.999999929
1017,47320469.999999929
1497,1312701.939636905
1533,0.0
1557,0.0
2228,1624765.862669384
2366,1312701.939636905
4114,24689867.024383874
4126,10490501.918585619
4162,14199365.105798256
4210,14378070.852101468
4236,0.0
4348,0.0
4473,0.0
2,3, 1, 3, 0, 1, 0.00,60.00,Saturday
11,67202927.77453706
47,24156278.99999996
71,4835078.999999999
346,19321199.999999968
993,18722069.99999997
1017,18722069.99999997
1497,1332808.130778901
1533,0.0
1557,0.0
2228,1666872.3291267236
2366,1332808.130778901
4114,22657706.445410395
4126,8458341.339612136
4162,14199365.105798256
4210,0.0
4236,0.0
4348,0.0
4473,0.0
2,3, 1, 3, 0, 2, 0.00,60.00,Saturday
11,68112311.01187369
47,24156278.99999996
71,4835078.999999999
346,19321199.999999968
993,18722069.99999997
1017,18722069.99999997
1497,3533244.220630771
1533,0.0
1557,0.0
2228,2478625.502171677
2366,1326095.5936274066
4114,22755336.509702065
4126,8458341.339612136
4162,14199365.105798256
4210,0.0
4236,2207148.6270033644
4348,0.0
4473,0.0
2,3, 1, 3, 0, 3, 0.00,60.00,Saturday
11,67813572.34218905
47,24156278.99999996
71,4835078.999999999
346,19321199.999999968
993,18722069.99999997
1017,18722069.99999997
1497,15804181.22502235
1533,0.0
1557,0.0
2228,1624893.8563352049
2366,1050172.91027242
4114,23310329.485853904
4126,8458341.339612136
4162,14199365.105798256
4210,0.0
4236,14754008.31474993
4348,0.0
4473,0.0
2,3, 1, 3, 0, 4, 0.00,60.00,Saturday
11,68017991.10185966
47,24156278.99999996
71,4835078.999999999
346,19321199.999999968
993,18722069.99999997
1017,18722069.99999997
1497,39347262.63567534
1533,0.0
1557,0.0
2228,798959.6290598332
2366,1299810.5570868906
4114,24340682.47279988
4126,8458341.339612136
4162,14199365.105798256
4210,0.0
4236,38047452.078588459
4348,0.0
4473,0.0
2,3, 1, 3, 0, 5, 0.00,60.00,Saturday
11,70712954.73634169
47,24156278.99999996
71,4835078.999999999
346,19321199.999999968
993,18722069.99999997
1017,18722069.99999997
1497,81946026.01671265
1533,0.0
1557,0.0
2228,1598131.2043704102
2366,1039930.0642138235
4114,26236474.531971326
4126,8458341.339612136
4162,14199365.105798256
4210,0.0
4236,80906095.95249883
4348,0.0
4473,0.0
2,3, 1, 3, 0, 6, 0.00,60.00,Saturday
11,179712795.81408064
47,52754678.99999992
71,4835078.999999999
346,47919599.99999992
993,47320469.999999929
1017,47320469.999999929
1497,89555684.79397227
1533,0.0
1557,0.0
2228,1598049.4235270094
2366,1128353.7773756725
4114,28601326.492273474
4126,10490501.918585619
4162,14199365.105798256
4210,49438270.89828022
4236,88427331.0165966
4348,0.0
4473,0.0
2,3, 1, 3, 0, 7, 0.00,60.00,Saturday
11,270999603.34478977
47,80361638.99999988
71,5971238.999999999
346,74390399.99999988
993,69320069.9999999
1017,69320069.9999999
1497,1228090099.92422
1533,28597212.921243654
1557,28597212.921243654
2228,805589.8815003878
2366,1230322.25682508
4114,69940169.94110026
4126,23302598.542177928
4162,14199365.105798256
4210,49472129.2635902
4236,1198262564.7461513
4348,0.0
4473,1100005.2585991405
2,3, 1, 3, 0, 8, 0.00,60.00,Saturday
11,262486257.57177488
47,83860253.48264241
71,9469853.482642539
346,74390399.99999988
993,73192139.99999988
1017,73192139.99999988
1497,879087504.3611679
1533,28597212.921243654
1557,28597212.921243654
2228,4516601.264870063
2366,1822415.6278105209
4114,50971764.99284397
4126,16534085.902617502
4162,14199365.105798256
4210,49421876.654445838
4236,848667875.8121138
4348,0.0
4473,523621.1769726974
2,3, 1, 3, 0, 9, 0.00,60.00,Saturday
11,291444559.8047794
47,100642018.34133214
71,26251618.341332277
346,74390399.99999988
993,90883619.99999987
1017,90883619.99999987
1497,680607090.6307511
1533,285108.16507584266
1557,285108.16507584266
2228,4692587.41199064
2366,2146681.25683055
4114,45345533.76972224
4126,16519577.605455207
4162,14199365.105798256
4210,49467024.848161999
4236,678175301.2088448
4348,0.0
4473,413775.433572519
2,3, 1, 3, 0,10, 0.00,60.00,Saturday
11,325805225.68904319
47,117949742.33877564
71,43559342.33877577
346,74390399.99999988
993,114116039.99999988
1017,114116039.99999988
1497,463031502.26424708
1533,285108.16507584266
1557,285108.16507584266
2228,5801094.076326937
2366,2181866.084134242
4114,39873917.384364489
4126,16563812.557769232
4162,14199365.105798256
4210,47783545.70605122
4236,460564528.01503697
4348,0.0
4473,280886.1835249875
2,3, 1, 3, 0,11, 0.00,60.00,Saturday
11,299207716.01413395
47,116599545.1543282
71,63657945.15432821
346,52941599.9999999
993,115899659.99999997
1017,115899659.99999997
1497,317374689.06424048
1533,513194.69713651677
1557,513194.69713651677
2228,7962219.13070191
2366,2957549.835231543
4114,36829092.201578188
4126,16652396.101351724
4162,14199365.105798256
4210,21696850.516734795
4236,313903944.53187248
4348,0.0
4473,220349.010790958
2,3, 1, 3, 0,12, 0.00,60.00,Saturday
11,292492103.6521205
47,116592428.91550747
71,63650828.91550749
346,52941599.9999999
993,115899659.99999997
1017,115899659.99999997
1497,250733704.0776511
1533,11952079.865633984
1557,11952079.865633984
2228,10913664.830810739
2366,3596954.3448339279
4114,35039186.68702878
4126,16890634.885376075
4162,14199365.105798256
4210,13839055.645959828
4236,235184669.86718325
4348,0.0
4473,208107.57281383454
2,3, 1, 3, 0,13, 0.00,60.00,Saturday
11,285675693.7176202
47,113148184.77195104
71,60206584.77195105
346,52941599.9999999
993,114247259.99999997
1017,114247259.99999997
1497,199787247.94085176
1533,11952079.865633984
1557,11952079.865633984
2228,12454495.693012087
2366,3608710.767027535
4114,33826842.73698902
4126,16968270.878409733
4162,14199365.105798256
4210,11795264.98648794
4236,184226457.30819024
4348,0.0
4473,203645.52918019153
2,3, 1, 3, 0,14, 0.00,60.00,Saturday
11,283686489.3533323
47,113130024.12172708
71,60188424.12172711
346,52941599.9999999
993,114247259.99999997
1017,114247259.99999997
1497,162095480.15987069
1533,513194.69713651677
1557,513194.69713651677
2228,11539955.464627879
2366,3608116.9131730326
4114,33054017.889373918
4126,17016836.475167056
4162,14199365.105798256
4210,11508975.407713453
4236,157974168.54956115
4348,3968.2798204253797
4473,202288.1900696138
2,3, 1, 3, 0,15, 0.00,60.00,Saturday
11,281962266.30227378
47,113119986.36583549
71,60178386.3658355
346,52941599.9999999
993,114247259.99999997
1017,114247259.99999997
1497,144042190.19189025
1533,427662.2476137639
1557,427662.2476137639
2228,9914397.746102166
2366,3222622.062278569
4114,32802455.588477509
4126,17215111.310289079
4162,14199365.105798256
4210,11454686.619904533
4236,140391905.8819979
4348,221973.1966441024
4473,201506.78531001984
2,3, 1, 3, 0,16, 0.00,60.00,Saturday
11,281834689.77978029
47,113442830.99238713
71,60501230.992387149
346,52941599.9999999
993,114247259.99999997
1017,114247259.99999997
1497,118463369.70125106
1533,427662.2476137639
1557,427662.2476137639
2228,9787355.501058337
2366,3013466.9170301549
4114,32874167.701834978
4126,17548724.046882065
4162,14199365.105798256
4210,11000042.96126443
4236,115022240.53660715
4348,283262.3209838175
4473,199770.3022516729
2,3, 1, 3, 0,17, 0.00,60.00,Saturday
11,286921102.3564155
47,118470868.19375496
71,65529268.19375498
346,52941599.9999999
993,114247259.99999997
1017,114247259.99999997
1497,155975704.73710669
1533,29024875.168857416
1557,29024875.168857416
2228,9664459.435109519
2366,3011018.9602342869
4114,33217970.196445098
4126,17626662.59253463
4162,14199365.105798256
4210,11114037.032677353
4236,123939810.60801497
4348,6772.028976074415
4473,199735.4694525865
2,3, 1, 3, 0,18, 0.00,60.00,Saturday
11,280257360.81432989
47,111937382.99999996
71,64017782.99999998
346,47919599.99999992
993,113145659.99999997
1017,113145659.99999997
1497,200368228.68490023
1533,28597212.921243654
1557,28597212.921243654
2228,9490908.943220795
2366,2813494.7106410565
4114,33722961.13686268
4126,17067831.8538185
4162,14199365.105798256
4210,11758728.46580756
4236,168957521.05301548
4348,0.0
4473,201719.26843902312
2,3, 1, 3, 0,19, 0.00,60.00,Saturday
11,306576023.9037923
47,128942549.99999987
71,38125349.999999988
346,90817199.99999984
993,125066699.99999988
1017,125066699.99999988
1497,190506955.3261807
1533,28597212.921243654
1557,28597212.921243654
2228,8199137.668953527
2366,2697132.5925867327
4114,31761912.68151117
4126,16519584.585411136
4162,14199365.105798256
4210,12400534.001435969
4236,159212609.8123503
4348,0.0
4473,205189.5518919505
2,3, 1, 3, 0,20, 0.00,60.00,Saturday
11,317685792.7778537
47,142745273.9999998
71,23329673.999999994
346,119415599.9999998
993,138176819.9999998
1017,138176819.9999998
1497,190359485.44495405
1533,0.0
1557,0.0
2228,7433598.502366466
2366,2456176.2024080238
4114,29084096.93431837
4126,14487417.026481722
4162,14199365.105798256
4210,32034.112780137533
4236,187903309.24254603
4348,0.0
4473,213969.2283891128
2,3, 1, 3, 0,21, 0.00,60.00,Saturday
11,345097127.44412997
47,157044473.99999977
71,23329673.999999994
346,133714799.99999979
993,152476019.99999977
1017,152476019.99999977
1497,253383884.40072084
1533,0.0
1557,0.0
2228,5917655.02318801
2366,2064128.503031006
4114,29375602.168038649
4126,14487417.026481722
4162,14199365.105798256
4210,43535.738368576494
4236,251319755.89768983
4348,0.0
4473,239840.51453499124
2,3, 1, 3, 0,22, 0.00,60.00,Saturday
11,286205558.1505347
47,127949597.9999998
71,8533997.999999999
346,119415599.9999998
993,122688539.9999998
1017,122688539.9999998
1497,334552529.849913
1533,0.0
1557,0.0
2228,4602495.05198171