Program Version,EnergyPlus, Version 9.0.1-bb7ca4f0da, YMD=2019.12.18 15:40
1,5,Environment Title[],Latitude[deg],Longitude[deg],Time Zone[],Elevation[m]
2,8,Day of Simulation[],Month[],Day of Month[],DST Indicator[1=yes 0=no],Hour[],StartMinute[],EndMinute[],DayType
3,5,Cumulative Day of Simulation[],Month[],Day of Month[],DST Indicator[1=yes 0=no],DayType  ! When Daily Meters Requested
4,2,Cumulative Days of Simulation[],Month[]  ! When Monthly Meters Requested
5,1,Cumulative Days of Simulation[] ! When Run Period Meters Requested
6,1,Calendar Year of Simulation[] ! When Annual Meters Requested
47,1,InteriorLights:Electricity [J] !Hourly
1557,1,Receptacle:InteriorEquipment:Gas [J] !Hourly
346,1,NonComplianceLtg:InteriorLights:Electricity [J] !Hourly
11,1,Electricity:Facility [J] !Hourly
4114,1,Fans:Electricity [J] !Hourly
993,1,InteriorEquipment:Electricity [J] !Hourly
4471,1,Pumps:Electricity [J] !Hourly
4235,1,Heating:Electricity [J] !Hourly
4350,1,Cooling:Electricity [J] !Hourly
2228,1,WaterSystems:Electricity [J] !Hourly
1497,1,Gas:Facility [J] !Hourly
1017,1,Receptacle:InteriorEquipment:Electricity [J] !Hourly
1533,1,InteriorEquipment:Gas [J] !Hourly
4222,1,Heating:Gas [J] !Hourly
2366,1,WaterSystems:Gas [J] !Hourly
71,1,ComplianceLtg:InteriorLights:Electricity [J] !Hourly
4126,1,General:Fans:Electricity [J] !Hourly
4162,1,ProcessMotors:Fans:Electricity [J] !Hourly
End of Data Dictionary
1,OAKLAND_724930_CZ2010,  37.72,-122.22,  -8.00,   2.00
2,1, 1, 1, 0, 1, 0.00,60.00,Holiday
11,66341734.27394022
47,24156278.99999996
71,4835078.999999999
346,19321199.999999968
993,18722069.99999997
1017,18722069.99999997
1497,1042785.2739396659
1533,0.0
1557,0.0
2228,805678.8285298817
2366,1042785.2739396659
4114,22657706.445410395
4126,8458341.339612136
4162,14199365.105798256
4222,0.0
4235,0.0
4350,0.0
4471,0.0
2,1, 1, 1, 0, 2, 0.00,60.00,Holiday
11,67147204.39189855
47,24156278.99999996
71,4835078.999999999
346,19321199.999999968
993,18722069.99999997
1017,18722069.99999997
1497,1042773.4128829227
1533,0.0
1557,0.0
2228,1611148.9464882045
2366,1042773.4128829227
4114,22657706.445410395
4126,8458341.339612136
4162,14199365.105798256
4222,0.0
4235,0.0
4350,0.0
4471,0.0
2,1, 1, 1, 0, 3, 0.00,60.00,Holiday
11,67147231.88105083
47,24156278.99999996
71,4835078.999999999
346,19321199.999999968
993,18722069.99999997
1017,18722069.99999997
1497,1303444.6649411242
1533,0.0
1557,0.0
2228,1611176.4356404823
2366,1303444.6649411242
4114,22657706.445410395
4126,8458341.339612136
4162,14199365.105798256
4222,0.0
4235,0.0
4350,0.0
4471,0.0
2,1, 1, 1, 0, 4, 0.00,60.00,Holiday
11,66337636.691555779
47,24156278.99999996
71,4835078.999999999
346,19321199.999999968
993,18722069.99999997
1017,18722069.99999997
1497,1037337.7968038314
1533,0.0
1557,0.0
2228,801581.246145438
2366,1037337.7968038314
4114,22657706.445410395
4126,8458341.339612136
4162,14199365.105798256
4222,0.0
4235,0.0
4350,0.0
4471,0.0
2,1, 1, 1, 0, 5, 0.00,60.00,Holiday
11,67152786.71279316
47,24156278.99999996
71,4835078.999999999
346,19321199.999999968
993,18722069.99999997
1017,18722069.99999997
1497,1572294.9054852382
1533,0.0
1557,0.0
2228,1595324.0417141966
2366,1037576.5064945298
4114,22679113.671079019
4126,8458341.339612136
4162,14199365.105798256
4222,534718.3989907085
4235,0.0
4350,0.0
4471,0.0
2,1, 1, 1, 0, 6, 0.00,60.00,Holiday
11,126368473.00816323
47,52754678.99999992
71,4835078.999999999
346,47919599.99999992
993,47320469.999999929
1017,47320469.999999929
1497,61431170.897135067
1533,0.0
1557,0.0
2228,1598013.9496881725
2366,1305585.3162663535
4114,24695310.058475086
4126,10490501.918585619
4162,14199365.105798256
4222,60125585.580868709
4235,0.0
4350,0.0
4471,0.0
2,1, 1, 1, 0, 7, 0.00,60.00,Holiday
11,183251756.6825174
47,74203478.99999988
71,4835078.999999999
346,69368399.9999999
993,68769269.9999999
1017,68769269.9999999
1497,367889304.40767648
1533,28597212.921243654
1557,28597212.921243654
2228,805506.6736271672
2366,1042713.7240067362
4114,39382052.425464767
4126,14533543.154217473
4162,14199365.105798256
4222,338249377.76242616
4235,227.60459735676828
4350,0.0
4471,91220.97882829793
2,1, 1, 1, 0, 8, 0.00,60.00,Holiday
11,177699836.77001689
47,74200608.60198428
71,4832208.601984404
346,69368399.9999999
993,68769269.9999999
1017,68769269.9999999
1497,236545108.8268468
1533,28597212.921243654
1557,28597212.921243654
2228,2478520.2874927979
2366,1323251.878751509
4114,32201526.80389678
4126,12388987.430519445
4162,14199365.105798256
4222,206624644.02685166
4235,166.04980288110805
4350,0.0
4471,49745.02684024057
2,1, 1, 1, 0, 9, 0.00,60.00,Holiday
11,196467860.72528423
47,77865889.21631558
71,8497489.216315713
346,69368399.9999999
993,72641339.99999988
1017,72641339.99999988
1497,524912412.74439129
1533,0.0
1557,0.0
2228,2521552.6157466706
2366,1336869.8558207332
4114,42511819.11619602
4126,24022526.810226449
4162,14199365.105798256
4222,523575542.88857057
4235,72576.74386702678
4350,0.0
4471,854683.0331589927
2,1, 1, 1, 0,10, 0.00,60.00,Holiday
11,188121263.61691464
47,77826450.95352715
71,8458050.95352728
346,69368399.9999999
993,72641339.99999988
1017,72641339.99999988
1497,425623791.41265669
1533,0.0
1557,0.0
2228,2565979.2957811739
2366,1350391.9704165103
4114,34756258.467261429
4126,16576178.79846904
4162,14199365.105798256
4222,424273399.4422401
4235,49500.62283207547
4350,0.0
4471,281734.2775128704
2,1, 1, 1, 0,11, 0.00,60.00,Holiday
11,194184779.07347483
47,78180106.1888814
71,30260506.18888143
346,47919599.99999992
993,74424959.99999996
1017,74424959.99999996
1497,352543501.94933536
1533,0.0
1557,0.0
2228,5915849.483860236
2366,2049062.730082467
4114,35422047.28365438
4126,16519577.605455207
4162,14199365.105798256
4222,350494439.2192529
4235,30475.11389505462
4350,0.0
4471,211341.00318386398
2,1, 1, 1, 0,12, 0.00,60.00,Holiday
11,193645133.2939805
47,78099094.36329484
71,30179494.363294875
346,47919599.99999992
993,74424959.99999996
1017,74424959.99999996
1497,330006187.05103877
1533,11438885.168497468
1557,11438885.168497468
2228,6039403.893177956
2366,2380305.318987498
4114,34849211.953482169
4126,16519577.605455207
4162,14199365.105798256
4222,316186996.56355389
4235,27033.66191622466
4350,0.0
4471,205429.4221094634
2,1, 1, 1, 0,13, 0.00,60.00,Holiday
11,221220805.64145849
47,89011518.37661559
71,41091918.37661559
346,47919599.99999992
993,89913239.99999997
1017,89913239.99999997
1497,282869427.86777326
1533,11438885.168497468
1557,11438885.168497468
2228,7433390.888350635
2366,2423067.182909052
4114,34642695.03150083
4126,16519577.605455207
4162,14199365.105798256
4222,269007475.5163667
4235,19491.795151228464
4350,0.0
4471,200469.54984031747
2,1, 1, 1, 0,14, 0.00,60.00,Holiday
11,220877426.0637589
47,89110754.24198337
71,41191154.241983387
346,47919599.99999992
993,89913239.99999997
1017,89913239.99999997
1497,242394323.20215083
1533,0.0
1557,0.0
2228,7434080.2933367849
2366,2461123.622701813
4114,34203653.68564217
4126,16519577.605455207
4162,14199365.105798256
4222,239933199.579449
4235,16364.20072107757
4350,0.0
4471,199333.64207556327
2,1, 1, 1, 0,15, 0.00,60.00,Holiday
11,220185415.74354989
47,89163584.23438885
71,41243984.23438886
346,47919599.99999992
993,89913239.99999997
1017,89913239.99999997
1497,222247206.5304787
1533,0.0
1557,0.0
2228,6972416.635908958
2366,2150772.7112545578
4114,33923309.21124672
4126,16519577.605455207
4162,14199365.105798256
4222,220096433.81922416
4235,14160.505760486925
4350,0.0
4471,198705.15624496414
2,1, 1, 1, 0,16, 0.00,60.00,Holiday
11,219083831.21761198
47,89062012.1973739
71,41142412.19737391
346,47919599.99999992
993,89913239.99999997
1017,89913239.99999997
1497,202942058.65830393
1533,0.0
1557,0.0
2228,6605565.094646927
2366,2423529.591862073
4114,33290869.50164643
4126,16519577.605455207
4162,14199365.105798256
4222,200518529.06644187
4235,13546.592457858756
4350,0.0
4471,198597.8314869745
2,1, 1, 1, 0,17, 0.00,60.00,Holiday
11,220479842.5549929
47,89627792.82797772
71,41708192.827977757
346,47919599.99999992
993,89913239.99999997
1017,89913239.99999997
1497,235724023.19568018
1533,28597212.921243654
1557,28597212.921243654
2228,7515357.69620388
2366,2451307.796176858
4114,33209935.36947281
4126,16519577.605455207
4162,14199365.105798256
4222,204675502.47825966
4235,14656.57968745922
4350,0.0
4471,198860.08165113448
2,1, 1, 1, 0,18, 0.00,60.00,Holiday
11,194333305.1554742
47,78647111.99999994
71,30727511.99999999
346,47919599.99999992
993,74424959.99999996
1017,74424959.99999996
1497,292591040.77116248
1533,28597212.921243654
1557,28597212.921243654
2228,7273629.107060354
2366,2203908.3839625024
4114,33763825.10098841
4126,16519577.605455207
4162,14199365.105798256
4222,261789919.46595628
4235,22266.601664246344
4350,0.0
4471,201512.3457612924
2,1, 1, 1, 0,19, 0.00,60.00,Holiday
11,242853756.8028452
47,106749035.99999982
71,15931835.999999995
346,90817199.99999984
993,101834279.99999984
1017,101834279.99999984
1497,217319815.2823877
1533,28597212.921243654
1557,28597212.921243654
2228,4736727.48407792
2366,1912650.2988158679
4114,29294977.44808929
4126,14487417.026481722
4162,14199365.105798256
4222,186809952.06232817
4235,30711.64907513584
4350,0.0
4471,208024.2216031091
2,1, 1, 1, 0,20, 0.00,60.00,Holiday
11,271616881.9538362
47,124250678.9999998
71,4835078.999999999
346,119415599.9999998
993,118816469.99999982
1017,118816469.99999982
1497,4209760.9071363699
1533,0.0
1557,0.0
2228,5798762.105306915
2366,2026574.594090065
4114,22750970.848529489
4126,8458341.339612136
4162,14199365.105798256
4222,2183186.313046304
4235,0.0
4350,0.0
4471,0.0
2,1, 1, 1, 0,21, 0.00,60.00,Holiday
11,298368016.41631636
47,138549878.9999998
71,4835078.999999999
346,133714799.99999979
993,133115669.99999979
1017,133115669.99999979
1497,2816553.0878593798
1533,0.0
1557,0.0
2228,3998904.420855619
2366,1681066.0876979447
4114,22703562.99546102
4126,8458341.339612136
4162,14199365.105798256
4222,1135487.000161435
4235,0.0
4350,0.0
4471,0.0
2,1, 1, 1, 0,22, 0.00,60.00,Holiday
11,268988798.13353136
47,124250678.9999998
71,4835078.999999999
346,119415599.9999998
993,118816469.99999982
1017,118816469.99999982
1497,4385074.674948965
1533,0.0
1557,0.0
2228,3147321.926141479
2366,1648623.1597107135
4114,22774327.207390027
4126,8458341.339612136
4162,14199365.105798256
4222,2736451.5152382517
4235,0.0
4350,0.0
4471,0.0
2,1, 1, 1, 0,23, 0.00,60.00,Holiday
11,211006547.44584153
47,95652278.99999984
71,4835078.999999999
346,90817199.99999984
993,90218069.99999985
1017,90218069.99999985
1497,1323208.132821235
1533,0.0
1557,0.0
2228,2478492.0004313986
2366,1323208.132821235
4114,22657706.445410395
4126,8458341.339612136
4162,14199365.105798256
4222,0.0
4235,0.0
4350,0.0
4471,0.0
2,1, 1, 1, 0,24, 0.00,60.00,Holiday
11,123531798.48379058
47,52754678.99999992
71,4835078.999999999
346,47919599.99999992
993,47320469.999999929
1017,47320469.999999929
1497,1037752.9367769357
1533,0.0
1557,0.0
2228,798943.0383802308
2366,1037752.9367769357
4114,22657706.445410395
4126,8458341.339612136
4162,14199365.105798256
4222,0.0
4235,0.0
4350,0.0
4471,0.0
2,2, 1, 2, 0, 1, 0.00,60.00,Friday
11,66322096.66230094
47,24156278.99999996
71,4835078.999999999
346,19321199.999999968
993,18722069.99999997
1017,18722069.99999997
1497,1029500.5399416582
1533,0.0
1557,0.0
2228,786041.2168905966
2366,1029500.5399416582
4114,22657706.445410395
4126,8458341.339612136
4162,14199365.105798256
4222,0.0
4235,0.0
4350,0.0
4471,0.0
2,2, 1, 2, 0, 2, 0.00,60.00,Friday
11,67143923.79690255
47,24156278.99999996
71,4835078.999999999
346,19321199.999999968
993,18722069.99999997
1017,18722069.99999997
1497,1609108.9183768407
1533,0.0
1557,0.0
2228,1584873.341431473
2366,1034716.189689828
4114,22680701.45547113
4126,8458341.339612136
4162,14199365.105798256
4222,574392.7286870127
4235,0.0
4350,0.0
4471,0.0
2,2, 1, 2, 0, 3, 0.00,60.00,Friday
11,66510151.55823633
47,24156278.99999996
71,4835078.999999999
346,19321199.999999968
993,18722069.99999997
1017,18722069.99999997
1497,5897672.996475164
1533,0.0
1557,0.0
2228,792426.728263482
2366,1034873.6419763053
4114,22839375.8299729
4126,8458341.339612136
4162,14199365.105798256
4222,4862799.354498858
4235,0.0
4350,0.0
4471,0.0
2,2, 1, 2, 0, 4, 0.00,60.00,Friday
11,67151833.88101036
47,24156278.99999996
71,4835078.999999999
346,19321199.999999968
993,18722069.99999997
1017,18722069.99999997
1497,23059584.445108225
1533,0.0
1557,0.0
2228,785941.1073485307
2366,1029891.7936805582
4114,23487543.77366188
4126,8458341.339612136
4162,14199365.105798256
4222,22029692.651427669
4235,0.0
4350,0.0
4471,0.0
2,2, 1, 2, 0, 5, 0.00,60.00,Friday
11,67803141.65190828
47,24156278.99999996
71,4835078.999999999
346,19321199.999999968
993,18722069.99999997
1017,18722069.99999997
1497,40890428.12680218
1533,0.0
1557,0.0
2228,785990.6218254105
2366,1029912.4146699202
4114,24138802.03008292
4126,8458341.339612136
4162,14199365.105798256
4222,39860515.71213226
4235,0.0
4350,0.0
4471,0.0
2,2, 1, 2, 0, 6, 0.00,60.00,Friday
11,132275969.979381
47,53890838.99999992
71,5971238.999999999
346,47919599.99999992
993,47871269.999999929
1017,47871269.999999929
1497,94281752.99818506
1533,0.0
1557,0.0
2228,786095.7681722372
2366,1295268.005313871
4114,29628102.952292786
4126,14275303.424083479
4162,14199365.105798256
4222,92986484.99287117
4235,118.50007458507844
4350,0.0
4471,99543.75884141526
2,2, 1, 2, 0, 7, 0.00,60.00,Friday
11,210792916.37974803
47,80361638.99999988
71,5971238.999999999
346,74390399.99999988
993,69320069.9999999
1017,69320069.9999999
1497,1055087729.9356295
1533,28597212.921243654
1557,28597212.921243654
2228,786127.5710799686
2366,1033935.0861946107
4114,59277850.82638584
4126,23970984.467207798
4162,14199365.105798256
4222,1025456581.9281914
4235,87878.01587404411
4350,0.0
4471,959350.9664083852
2,2, 1, 2, 0, 8, 0.00,60.00,Friday
11,225976607.27993403
47,95991532.16376847
71,21601132.163768598
346,74390399.99999988
993,83139479.99999988
1017,83139479.99999988
1497,727233246.3109458
1533,28882321.086319496
1557,28882321.086319496
2228,3453079.56364303
2366,1686204.1102913898
4114,43004218.10937776
4126,16555847.84557695
4162,14199365.105798256
4222,696664721.1143348
4235,62412.74041350357
4350,0.0
4471,325884.70273132287
2,2, 1, 2, 0, 9, 0.00,60.00,Friday
11,284117733.5651394
47,125950306.21617292
71,51559906.216173049
346,74390399.99999988
993,112981499.99999987
1017,112981499.99999987
1497,539534062.9500676
1533,285108.16507584266
1557,285108.16507584266
2228,4650332.049979316
2366,2444634.8818584645
4114,40262760.24324879
4126,16519577.605455207
4162,14199365.105798256
4222,536804319.9031334
4235,41872.19197405644
4350,0.0
4471,230962.86376436516
2,2, 1, 2, 0,10, 0.00,60.00,Friday
11,340213303.08172419
47,151016199.23281855
71,76625799.23281859
346,74390399.99999988
993,143958059.99999995
1017,143958059.99999995
1497,424108366.6394293
1533,285108.16507584266
1557,285108.16507584266
2228,6109395.899893297
2366,2890347.1425964927
4114,38894644.264663327
4126,16563732.931846418
4162,14199365.105798256
4222,420932911.331757
4235,26816.079597141084
4350,0.0
4471,208187.60475195366
2,2, 1, 2, 0,11, 0.00,60.00,Friday
11,299458226.00368729
47,128511487.69860499
71,75569887.69860502
346,52941599.9999999
993,122509259.99999996
1017,122509259.99999996
1497,432891020.9349693
1533,513194.69713651677
1557,513194.69713651677
2228,8707751.218208047
2366,3146916.698098328
4114,39496959.568466369
4126,16598705.167673702
4162,14199365.105798256
4222,429230909.5397344
4235,25719.815333492632
4350,0.0
4471,207047.703074444
2,2, 1, 2, 0,12, 0.00,60.00,Friday
11,301783411.6592384
47,128753614.52573964
71,75812014.52573966
346,52941599.9999999
993,122509259.99999996
1017,122509259.99999996
1497,407652967.0373213
1533,11952079.865633984
1557,11952079.865633984
2228,11415985.425638175
2366,3963330.5643386265
4114,38877425.40179217
4126,16815874.996996169
4162,14199365.105798256
4222,391737556.6073487
4235,22958.2983215367
4350,0.0
4471,204168.00774701974
2,2, 1, 2, 0,13, 0.00,60.00,Friday
11,298194468.6500007
47,126635535.36213184
71,73693935.36213187
346,52941599.9999999
993,122509259.99999996
1017,122509259.99999996
1497,326727663.77450367
1533,11952079.865633984
1557,11952079.865633984
2228,12177771.064644782
2366,4627818.267497602
4114,36651794.112104337
4126,16884604.298349009
4162,14199365.105798256
4222,310147765.641372
4235,19034.100038395503
4350,0.0
4471,201074.0110813924
2,2, 1, 2, 0,14, 0.00,60.00,Friday
11,298093781.5730444
47,127085063.96226895
71,74143463.96226897
346,52941599.9999999
993,122509259.99999996
1017,122509259.99999996
1497,266933737.06580556
1533,513194.69713651677
1557,513194.69713651677
2228,12937225.28309469
2366,4250966.214427496
4114,35345711.53720248
4126,16921256.223584407
4162,14199365.105798256
4222,262169576.15424157
4235,16740.370145775003
4350,0.0
4471,199780.42033269845
2,2, 1, 2, 0,15, 0.00,60.00,Friday
11,295089923.6692674
47,127508596.39647734
71,74566996.39647736
346,52941599.9999999
993,122509259.99999996
1017,122509259.99999996
1497,252473795.8089089
1533,427662.2476137639
1557,427662.2476137639
2228,10052059.11637205
2366,3616814.1783626175
4114,34803264.941292
4126,16968653.497788878
4162,14199365.105798256
4222,248429319.38293255
4235,16940.657330305432
4350,0.0
4471,199802.55779582708
2,2, 1, 2, 0,16, 0.00,60.00,Friday
11,289860270.98069587
47,125070133.52972892
71,72128533.52972894
346,52941599.9999999
993,122509259.99999996
1017,122509259.99999996
1497,206914972.02962906
1533,427662.2476137639
1557,427662.2476137639
2228,8601439.14787009
2366,3136961.65981847
4114,33463849.70984082
4126,17280903.27054087
4162,14199365.105798256
4222,203350348.1221968
4235,16084.022709392168
4350,0.0
4471,199504.57054670377
2,2, 1, 2, 0,17, 0.00,60.00,Friday
11,294358675.564904
47,129184810.27662225
71,76243210.2766223
346,52941599.9999999
993,122509259.99999996
1017,122509259.99999996
1497,233892449.98156405
1533,29024875.168857416
1557,29024875.168857416
2228,9206719.81775263
2366,3625695.147151333
4114,33241700.18924105
4126,17222764.16634289
4162,14199365.105798256
4222,201241879.66555528
4235,16545.994063859092
4350,0.0
4471,199639.2872242567
2,2, 1, 2, 0,18, 0.00,60.00,Friday
11,286053071.9885186
47,123776342.99999996
71,70834742.99999997
346,52941599.9999999
993,118102859.99999997
1017,118102859.99999997
1497,276021249.67183288
1533,29024875.168857416
1557,29024875.168857416
2228,9670525.412914459
2366,3157036.3955547495
4114,34284986.110666278
4126,16923549.217513175
4162,14199365.105798256
4222,243839338.10742069
4235,18034.41517353442
4350,0.0
4471,200323.04976447638
2,2, 1, 2, 0,19, 0.00,60.00,Friday
11,319661062.6818164
47,143344268.99999986
71,47505068.99999999
346,95839199.99999984
993,135564839.99999989
1017,135564839.99999989
1497,237030202.2228231
1533,28597212.921243654
1557,28597212.921243654
2228,8574302.678306437
2366,2934104.7382453067
4114,31954720.12536745
4126,16668157.244462215
4162,14199365.105798256
4222,205498884.56333418
4235,20877.894495686436
4350,0.0
4471,202052.98364712226
2,2, 1, 2, 0,20, 0.00,60.00,Friday
11,374117347.78437897
47,171942668.99999974
71,47505068.99999999
346,124437599.9999998
993,164163239.99999974
1017,164163239.99999974
1497,190144555.10186649
1533,0.0
1557,0.0
2228,6713154.989356312
2366,2478399.188348571
4114,31074606.44414695
4126,16542705.437742312
4162,14199365.105798256
4222,187666155.9135179
4235,21235.031421147745
4350,0.0
4471,202442.31945492963
2,2, 1, 2, 0,21, 0.00,60.00,Friday
11,388257384.38646957
47,180270629.9999997
71,41533829.999999988
346,138736799.9999998
993,169616699.99999974
1017,169616699.99999974
1497,206577104.2855081
1533,0.0
1557,0.0
2228,7124755.402311206
2366,2491540.4370965945
4114,31016028.455923685
4126,16519577.605455207
4162,14199365.105798256
4222,204085563.8484115
4235,24313.17033400265
4350,0.0
4471,204957.3579010262
2,2, 1, 2, 0,22, 0.00,60.00,Friday
11,305785535.8683733
47,143777915.9999998
71,19340315.999999998
346,124437599.9999998
993,132085079.9999998
1017,132085079.9999998
1497,76025061.57532475
1533,0.0
1557,0.0
2228,4714424.565423286
2366,1987971.8685429134
4114,25208115.30295038
4126,10490501.918585619
4162,14199365.105798256
4222,74037089.70678184
4235,0.0
4350,0.0
4471,0.0
2,2, 1, 2, 0,23, 0.00,60.00,Friday
11,214790956.78884775
47,96788438.99999984
71,5971238.999999999
346,90817199.99999984
993,90768869.99999985
1017,90768869.99999985
1497,62512202.25198054
1533,0.0
1557,0.0
2228,2543780.7644641429
2366,1346732.4987857482
4114,24689867.024383874
4126,10490501.918585619
4162,14199365.105798256
4222,61165469.753194797
4235,0.0
4350,0.0
4471,0.0
2,2, 1, 2, 0,24, 0.00,60.00,Friday
11,126389781.78612718
47,52754678.99999992
71,4835078.999999999
346,47919599.99999992
993,47320469.999999929
1017,47320469.999999929
1497,62478171.61079184
1533,0.0
1557,0.0
2228,1624765.7617433365
2366,1312701.857597046
4114,24689867.024383874
4126,10490501.918585619
4162,14199365.105798256
4222,61165469.753194797
4235,0.0
4350,0.0
4471,0.0
2,3, 1, 3, 0, 1, 0.00,60.00,Saturday
11,67202927.67233303
47,24156278.99999996
71,4835078.999999999
346,19321199.999999968
993,18722069.99999997
1017,18722069.99999997
1497,1332808.210044932
1533,0.0
1557,0.0
2228,1666872.2269226802
2366,1332808.210044932
4114,22657706.445410395
4126,8458341.339612136
4162,14199365.105798256
4222,0.0
4235,0.0
4350,0.0
4471,0.0
2,3, 1, 3, 0, 2, 0.00,60.00,Saturday
11,68100571.05523968
47,24156278.99999996
71,4835078.999999999
346,19321199.999999968
993,18722069.99999997
1017,18722069.99999997
1497,3575574.468516509
1533,0.0
1557,0.0
2228,2478625.3490633836
2366,1326095.632958524
4114,22743596.706176338
4126,8458341.339612136
4162,14199365.105798256
4222,2249478.835557985
4235,0.0
4350,0.0
4471,0.0
2,3, 1, 3, 0, 3, 0.00,60.00,Saturday
11,67731758.3118889
47,24156278.99999996
71,4835078.999999999
346,19321199.999999968
993,18722069.99999997
1017,18722069.99999997
1497,16091157.301944238
1533,0.0
1557,0.0
2228,1624893.75662331
2366,1050172.988458315
4114,23228515.555265648
4126,8458341.339612136
4162,14199365.105798256
4222,15040984.313485923
4235,0.0
4350,0.0
4471,0.0
2,3, 1, 3, 0, 4, 0.00,60.00,Saturday
11,67794624.32336283
47,24156278.99999996
71,4835078.999999999
346,19321199.999999968
993,18722069.99999997
1017,18722069.99999997
1497,40116866.7458296
1533,0.0
1557,0.0
2228,798959.5796538041
2366,1299810.5230627987
4114,24117315.743709066
4126,8458341.339612136
4162,14199365.105798256
4222,38817056.2227668
4235,0.0
4350,0.0
4471,0.0
2,3, 1, 3, 0, 5, 0.00,60.00,Saturday
11,70220925.51056379
47,24156278.99999996
71,4835078.999999999
346,19321199.999999968
993,18722069.99999997
1017,18722069.99999997
1497,83199030.20032062
1533,0.0
1557,0.0
2228,1598131.106469898
2366,1039929.8929890451
4114,25744445.404093945
4126,8458341.339612136
4162,14199365.105798256
4222,82159100.30733158
4235,0.0
4350,0.0
4471,0.0
2,3, 1, 3, 0, 6, 0.00,60.00,Saturday
11,129716641.2208096
47,52754678.99999992
71,4835078.999999999
346,47919599.99999992
993,47320469.999999929
1017,47320469.999999929
1497,151554682.5133088
1533,0.0
1557,0.0
2228,1598049.3837370994
2366,1129440.2309652654
4114,28043442.837072549
4126,10490501.918585619
4162,14199365.105798256
4222,150425242.2823435
4235,0.0
4350,0.0
4471,0.0
2,3, 1, 3, 0, 7, 0.00,60.00,Saturday
11,218404925.049412
47,80361638.99999988
71,5971238.999999999
346,74390399.99999988
993,69320069.9999999
1017,69320069.9999999
1497,1318986375.7800923
1533,28597212.921243654
1557,28597212.921243654
2228,805589.8194688006
2366,1229183.580295072
4114,66661062.50906708
4126,23335854.08526176
4162,14199365.105798256
4222,1289159979.2785536
4235,102025.97678635005
4350,0.0
4471,1154537.7440899939
2,3, 1, 3, 0, 8, 0.00,60.00,Saturday
11,210686823.2225964
47,83860253.48264241
71,9469853.482642539
346,74390399.99999988
993,73192139.99999988
1017,73192139.99999988
1497,947239705.2252587
1533,28597212.921243654
1557,28597212.921243654
2228,4516601.062562662
2366,1823151.6630165938
4114,48513655.836591158
4126,16534026.881977601
4162,14199365.105798256
4222,916819340.6409985
4235,81157.63818820726
4350,0.0
4471,523015.2026120987
2,3, 1, 3, 0, 9, 0.00,60.00,Saturday
11,240299219.77991189
47,100642018.34133214
71,26251618.341332277
346,74390399.99999988
993,90883619.99999987
1017,90883619.99999987
1497,748918044.0675376
1533,285108.16507584266
1557,285108.16507584266
2228,4692587.154682838
2366,2146682.0948611476
4114,43597107.572540778
4126,16519577.605455207
4162,14199365.105798256
4222,746486253.8076006
4235,70048.9608048368
4350,0.0
4471,413837.7505514355
2,3, 1, 3, 0,10, 0.00,60.00,Saturday
11,277026081.8086969
47,117949742.33877564
71,43559342.33877577
346,74390399.99999988
993,114116039.99999988
1017,114116039.99999988
1497,530876622.19975426
1533,285108.16507584266
1557,285108.16507584266
2228,5801094.101268645
2366,2181078.966207429
4114,38830498.69991222
4126,16563812.563788107
4162,14199365.105798256
4222,528410435.06847098
4235,47809.00618559479
4350,0.0
4471,280897.66255486526
2,3, 1, 3, 0,11, 0.00,60.00,Saturday
11,276888538.1240618
47,116599545.1543282
71,63657945.15432821
346,52941599.9999999
993,115899659.99999997
1017,115899659.99999997
1497,384076400.1511598
1533,513194.69713651677
1557,513194.69713651677
2228,7962218.9299623579
2366,2957550.0357027559
4114,36174743.83553927
4126,16652383.83884364
4162,14199365.105798256
4222,380605655.41832056
4235,32018.662994027465
4350,0.0
4471,220351.54123816643
2,3, 1, 3, 0,12, 0.00,60.00,Saturday
11,278266582.50125727
47,116592428.91550747
71,63650828.91550749
346,52941599.9999999
993,115899659.99999997
1017,115899659.99999997
1497,315710812.2498917
1533,11952079.865633984
1557,11952079.865633984
2228,10913797.06785655
2366,3596954.5517662505
4114,34626466.67888301
4126,16890586.777181895
4162,14199365.105798256
4222,300161777.83249148
4235,26122.453158555276
4350,0.0
4471,208107.3858518009
2,3, 1, 3, 0,13, 0.00,60.00,Saturday
11,273630107.08207026
47,113148184.77195104
71,60206584.77195105
346,52941599.9999999
993,114247259.99999997
1017,114247259.99999997
1497,263799657.84945346
1533,11952079.865633984
1557,11952079.865633984
2228,12454353.27552415
2366,3609213.216562264
4114,33554441.91404812
4126,16968241.464325265
4162,14199365.105798256
4222,248238364.7672572
4235,22221.117948595907
4350,0.0
4471,203646.0025983749
2,3, 1, 3, 0,14, 0.00,60.00,Saturday
11,271959038.6531441
47,113130024.12172708
71,60188424.12172711
346,52941599.9999999
993,114247259.99999997
1017,114247259.99999997
1497,225095646.90005068
1533,513194.69713651677
1557,513194.69713651677
2228,11539956.130245159
2366,3608119.190103733
4114,32815697.959189945
4126,17016810.726654479
4162,14199365.105798256
4222,220974333.0128104
4235,20847.409799877318
4350,2965.200987844479
4471,202287.8311943246
2,3, 1, 3, 0,15, 0.00,60.00,Saturday
11,270278040.4051794
47,113119986.36583549
71,60178386.3658355
346,52941599.9999999
993,114247259.99999997
1017,114247259.99999997
1497,206462715.37350459
1533,427662.2476137639
1557,427662.2476137639
2228,9914398.342968069
2366,3222156.133705917
4114,32557882.5802811
4126,17215009.697091976
4162,14199365.105798256
4222,202812896.99218495
4235,19699.985820429432
4350,217305.86099776324
4471,201507.26927660284
2,3, 1, 3, 0,16, 0.00,60.00,Saturday
11,270629553.6498565
47,113442830.99238713
71,60501230.992387149
346,52941599.9999999
993,114247259.99999997
1017,114247259.99999997
1497,180358428.88580386
1533,427662.2476137639
1557,427662.2476137639
2228,9787356.089195108
2366,3013467.1990473226
4114,32656658.2978893
4126,17548454.29006917
4162,14199365.105798256
4222,176917299.43914277
4235,16267.574488004071
4350,279410.13850176936
4471,199770.5573953145
2,3, 1, 3, 0,17, 0.00,60.00,Saturday
11,275573456.1293807
47,118470868.19375496
71,65529268.19375498
346,52941599.9999999
993,114247259.99999997
1017,114247259.99999997
1497,218220484.23793669
1533,29024875.168857416
1557,29024875.168857416
2228,9664460.017219659
2366,3011019.1607887188
4114,32968260.45260393
4126,17626527.60247659
4162,14199365.105798256
4222,186184589.90829057
4235,16563.81263132195
4350,6307.086871848052
4471,199736.56629913266
2,3, 1, 3, 0,18, 0.00,60.00,Saturday
11,268131921.21752096
47,111937382.99999996
71,64017782.99999998
346,47919599.99999992
993,113145659.99999997
1017,113145659.99999997
1497,263768151.01421017
1533,28597212.921243654
1557,28597212.921243654
2228,9491083.246091266
2366,2814002.813570817
4114,33335765.70502129
4126,17067797.09452357
4162,14199365.105798256
4222,232356935.27939568
4235,20309.50808894979
4350,0.0
4471,201719.75831956845
2,3, 1, 3, 0,19, 0.00,60.00,Saturday
11,294052551.06220677
47,128942549.99999987
71,38125349.999999988
346,90817199.99999984
993,125066699.99999988
1017,125066699.99999988
1497,253212888.35245294
1533,28597212.921243654
1557,28597212.921243654
2228,8198967.887817253
2366,2696632.0328156587
4114,31614858.99827507
4126,16519584.396010722
4162,14199365.105798256
4222,221919043.39839364
4235,24284.41390176077
4350,0.0
4471,205189.76221286987
2,3, 1, 3, 0,20, 0.00,60.00,Saturday
11,317626093.6136515
47,142745273.9999998
71,23329673.999999994
346,119415599.9999998
993,138176819.9999998
1017,138176819.9999998
1497,190782242.96947844
1533,0.0
1557,0.0
2228,7433598.366656448
2366,2456177.3812365487
4114,29024414.21124141
4126,14487417.026481722
4162,14199365.105798256
4222,188326065.58824189
4235,32027.611173979574
4350,0.0
4471,213959.4245800006
2,3, 1, 3, 0,21, 0.00,60.00,Saturday
11,344993581.17732098
47,157044473.99999977
71,23329673.999999994
346,133714799.99999979
993,152476019.99999977
1017,152476019.99999977
1497,254127744.97533436
1533,0.0
1557,0.0
2228,5917654.945765994
2366,2064128.4664828187
4114,29272046.77539407
4126,14487417.026481722
4162,14199365.105798256
4222,252063616.50885154
4235,43538.105620472605
4350,0.0
4471,239847.35054073385
2,3, 1, 3, 0,22, 0.00,60.00,Saturday
11,285962693.2666217
47,127949597.9999998
71,8533997.999999999
346,119415599.9999998
993,122688539.9999998
1017,122688539.9999998
1497,336099532.80612567
1533,0.0
1557,0.0
2228,4602495.092570106
2366,1995448.8462251249
4114,30386020.994855007