Program Version,EnergyPlus, Version 9.0.1-bb7ca4f0da, YMD=2019.12.17 18:29
1,5,Environment Title[],Latitude[deg],Longitude[deg],Time Zone[],Elevation[m]
2,8,Day of Simulation[],Month[],Day of Month[],DST Indicator[1=yes 0=no],Hour[],StartMinute[],EndMinute[],DayType
3,5,Cumulative Day of Simulation[],Month[],Day of Month[],DST Indicator[1=yes 0=no],DayType  ! When Daily Meters Requested
4,2,Cumulative Days of Simulation[],Month[]  ! When Monthly Meters Requested
5,1,Cumulative Days of Simulation[] ! When Run Period Meters Requested
6,1,Calendar Year of Simulation[] ! When Annual Meters Requested
46,1,InteriorLights:Electricity [J] !Hourly
992,1,InteriorEquipment:Electricity [J] !Hourly
1016,1,Receptacle:InteriorEquipment:Electricity [J] !Hourly
10,1,Electricity:Facility [J] !Hourly
4480,1,Pumps:Electricity [J] !Hourly
4121,1,Fans:Electricity [J] !Hourly
1496,1,Gas:Facility [J] !Hourly
4243,1,Heating:Electricity [J] !Hourly
4354,1,Cooling:Electricity [J] !Hourly
4133,1,General:Fans:Electricity [J] !Hourly
2227,1,WaterSystems:Electricity [J] !Hourly
1532,1,InteriorEquipment:Gas [J] !Hourly
2365,1,WaterSystems:Gas [J] !Hourly
4230,1,Heating:Gas [J] !Hourly
4170,1,ProcessMotors:Fans:Electricity [J] !Hourly
1556,1,Receptacle:InteriorEquipment:Gas [J] !Hourly
70,1,ComplianceLtg:InteriorLights:Electricity [J] !Hourly
345,1,NonComplianceLtg:InteriorLights:Electricity [J] !Hourly
End of Data Dictionary
1,BLUE-CANYON-AP ANN CLG 0.4% CONDNS DB=>MCWB,  39.30,-120.72,  -8.00,1609.00
2,1, 7,21, 0, 1, 0.00,60.00,SummerDesignDay
10,654522076.524271
46,249737579.99999974
70,96701579.99999997
345,153035999.9999997
992,231449399.99999977
1016,231449399.99999977
1496,64873884.02143889
1532,57764642.17263899
1556,57764642.17263899
2227,20635738.524378376
2365,7109241.848799893
4121,237.13311277074798
4133,40.35904261253097
4170,146.49394504991597
4230,0.0
4243,0.0
4354,152699120.86677987
4480,0.0
2,1, 7,21, 0, 2, 0.00,60.00,SummerDesignDay
10,650481777.3425534
46,249737579.99999974
70,96701579.99999997
345,153035999.9999997
992,231449399.99999977
1016,231449399.99999977
1496,64873907.5951879
1532,57764642.17263899
1556,57764642.17263899
2227,20636134.144742628
2365,7109265.422548917
4121,236.27019374424914
4133,40.37023678490469
4170,146.49394504991597
4230,0.0
4243,0.0
4354,148658426.92761708
4480,0.0
2,1, 7,21, 0, 3, 0.00,60.00,SummerDesignDay
10,648923432.9304181
46,249737579.99999974
70,96701579.99999997
345,153035999.9999997
992,231449399.99999977
1016,231449399.99999977
1496,64873643.84022879
1532,57764642.17263899
1556,57764642.17263899
2227,21566778.05485235
2365,7109001.667589796
4121,235.8455430072131
4133,40.381120401554507
4170,146.49394504991597
4230,0.0
4243,0.0
4354,146169439.03002278
4480,0.0
2,1, 7,21, 0, 4, 0.00,60.00,SummerDesignDay
10,645836955.7693136
46,249737579.99999974
70,96701579.99999997
345,153035999.9999997
992,231449399.99999977
1016,231449399.99999977
1496,64873374.858765859
1532,57764642.17263899
1556,57764642.17263899
2227,20635575.237740667
2365,7108732.686126867
4121,235.49386074176753
4133,40.39114798426864
4170,146.49394504991597
4230,0.0
4243,0.0
4354,144014165.03771223
4480,0.0
2,1, 7,21, 0, 5, 0.00,60.00,SummerDesignDay
10,645498458.0747054
46,249737579.99999974
70,96701579.99999997
345,153035999.9999997
992,231449399.99999977
1016,231449399.99999977
1496,64873100.505723807
1532,57764642.17263899
1556,57764642.17263899
2227,21383713.791142707
2365,7108458.333084818
4121,235.44282090092023
4133,40.42476285755238
4170,146.49394504991597
4230,0.0
4243,0.0
4354,142927528.84074173
4480,0.0
2,1, 7,21, 0, 6, 0.00,60.00,SummerDesignDay
10,680604939.4482131
46,249737579.99999974
70,96701579.99999997
345,153035999.9999997
992,231449399.99999977
1016,231449399.99999977
1496,64873023.95832493
1532,57764642.17263899
1556,57764642.17263899
2227,20819707.68094595
2365,7108381.785685938
4121,253.49865488392175
4133,51.00730665883498
4170,146.49394504991597
4230,0.0
4243,0.0
4354,178597998.26861216
4480,0.0
2,1, 7,21, 0, 7, 0.00,60.00,SummerDesignDay
10,759782395.9886505
46,249737579.99999974
70,96701579.99999997
345,153035999.9999997
992,231449399.99999977
1016,231449399.99999977
1496,64872936.62881413
1532,57764642.17263899
1556,57764642.17263899
2227,20636127.196739705
2365,7108294.456175141
4121,314.7127821190061
4133,101.11049094639559
4170,146.49394504991597
4230,0.0
4243,0.0
4354,257958974.07912857
4480,0.0
2,1, 7,21, 0, 8, 0.00,60.00,SummerDesignDay
10,763896446.064491
46,249737579.99999974
70,96701579.99999997
345,153035999.9999997
992,231449399.99999977
1016,231449399.99999977
1496,64872245.642150137
1532,57764642.17263899
1556,57764642.17263899
2227,21566936.719057949
2365,7107603.469511144
4121,294.30116382970638
4133,73.2477270986449
4170,146.49394504991597
4230,0.0
4243,0.0
4354,261142235.0442691
4480,0.0
2,1, 7,21, 0, 9, 0.00,60.00,SummerDesignDay
10,782542053.6244332
46,249737579.99999974
70,96701579.99999997
345,153035999.9999997
992,231449399.99999977
1016,231449399.99999977
1496,64871948.28149427
1532,57764642.17263899
1556,57764642.17263899
2227,20635575.78994626
2365,7107306.108855279
4121,297.5902993348966
4133,68.05617098438147
4170,146.49394504991597
4230,0.0
4243,0.0
4354,280719200.2441877
4480,0.0
2,1, 7,21, 0,10, 0.00,60.00,SummerDesignDay
10,798265556.1466386
46,249737579.99999974
70,96701579.99999997
345,153035999.9999997
992,231449399.99999977
1016,231449399.99999977
1496,64960345.041625168
1532,57764642.17263899
1556,57764642.17263899
2227,21199048.20398346
2365,7195702.868986174
4121,300.8395908779829
4133,66.58012557142949
4170,146.49394504991597
4230,0.0
4243,0.0
4354,295879227.1030642
4480,0.0
2,1, 7,21, 0,11, 0.00,60.00,SummerDesignDay
10,807591450.6092395
46,249737579.99999974
70,96701579.99999997
345,153035999.9999997
992,231449399.99999977
1016,231449399.99999977
1496,64971190.466095607
1532,57764642.17263899
1556,57764642.17263899
2227,21004108.16825244
2365,7206548.293456615
4121,301.20796401935686
4133,65.47088752167451
4170,146.49394504991597
4230,0.0
4243,0.0
4354,305400061.233023
4480,0.0
2,1, 7,21, 0,12, 0.00,60.00,SummerDesignDay
10,813203670.8940991
46,249737579.99999974
70,96701579.99999997
345,153035999.9999997
992,231449399.99999977
1016,231449399.99999977
1496,64970462.70269189
1532,57764642.17263899
1556,57764642.17263899
2227,20636042.51150328
2365,7205820.5300529
4121,300.6094392188479
4133,64.60815376714254
4170,146.49394504991597
4230,0.0
4243,0.0
4354,311380347.77315679
4480,0.0
2,1, 7,21, 0,13, 0.00,60.00,SummerDesignDay
10,820448445.7117312
46,249737579.99999974
70,96701579.99999997
345,153035999.9999997
992,231449399.99999977
1016,231449399.99999977
1496,64909251.94056684
1532,57764642.17263899
1556,57764642.17263899
2227,21567093.766637695
2365,7144609.767927847
4121,301.1840520997283
4133,64.13084292206426
4170,146.49394504991597
4230,0.0
4243,0.0
4354,317694070.7610413
4480,0.0
2,1, 7,21, 0,14, 0.00,60.00,SummerDesignDay
10,828933725.6029523
46,249737579.99999974
70,96701579.99999997
345,153035999.9999997
992,231449399.99999977
1016,231449399.99999977
1496,64874005.33341368
1532,57764642.17263899
1556,57764642.17263899
2227,20635320.33840208
2365,7109363.160774693
4121,304.5034485814862
4133,64.38266928336059
4170,146.49394504991597
4230,0.0
4243,0.0
4354,327111120.7611015
4480,0.0
2,1, 7,21, 0,15, 0.00,60.00,SummerDesignDay
10,841661478.3438858
46,249737579.99999974
70,96701579.99999997
345,153035999.9999997
992,231449399.99999977
1016,231449399.99999977
1496,64873743.50497463
1532,57764642.17263899
1556,57764642.17263899
2227,21015541.935997834
2365,7109101.3323356439
4121,311.11670754716456
4133,65.59878686748907
4170,146.49394504991597
4230,0.0
4243,0.0
4354,339458645.2911804
4480,0.0
2,1, 7,21, 0,16, 0.00,60.00,SummerDesignDay
10,847557949.2661624
46,249737579.99999974
70,96701579.99999997
345,153035999.9999997
992,231449399.99999977
1016,231449399.99999977
1496,64873476.50318179
1532,57764642.17263899
1556,57764642.17263899
2227,21187216.030744815
2365,7108834.330542801
4121,315.8336562833173
4133,66.70404812407267
4170,146.49394504991597
4230,0.0
4243,0.0
4354,345183437.40176126
4480,0.0
2,1, 7,21, 0,17, 0.00,60.00,SummerDesignDay
10,840989116.4008182
46,249737579.99999974
70,96701579.99999997
345,153035999.9999997
992,231449399.99999977
1016,231449399.99999977
1496,64873204.184912178
1532,57764642.17263899
1556,57764642.17263899
2227,20635979.662483708
2365,7108562.012273193
4121,314.63097732549957
4133,66.4939076158855
4170,146.49394504991597
4230,0.0
4243,0.0
4354,339165842.10735729
4480,0.0
2,1, 7,21, 0,18, 0.00,60.00,SummerDesignDay
10,829296601.3391208
46,249737579.99999974
70,96701579.99999997
345,153035999.9999997
992,231449399.99999977
1016,231449399.99999977
1496,64872926.40177049
1532,57764642.17263899
1556,57764642.17263899
2227,21567248.815234949
2365,7108284.229131502
4121,310.070132026124
4133,65.6656186079328
4170,146.49394504991597
4230,0.0
4243,0.0
4354,326542062.4537537
4480,0.0
2,1, 7,21, 0,19, 0.00,60.00,SummerDesignDay
10,804154323.3003031
46,249737579.99999974
70,96701579.99999997
345,153035999.9999997
992,231449399.99999977
1016,231449399.99999977
1496,64872642.99984488
1532,57764642.17263899
1556,57764642.17263899
2227,20635178.454036584
2365,7108000.827205885
4121,299.34247462232215
4133,63.188070110075688
4170,146.49394504991597
4230,0.0
4243,0.0
4354,302331865.5037918
4480,0.0
2,1, 7,21, 0,20, 0.00,60.00,SummerDesignDay
10,765927356.8558875
46,249737579.99999974
70,96701579.99999997
345,153035999.9999997
992,231449399.99999977
1016,231449399.99999977
1496,64872353.8194491
1532,57764642.17263899
1556,57764642.17263899
2227,20832311.436269035
2365,7107711.646810109
4121,280.2751546731304
4133,59.98592722329667
4170,146.49394504991597
4230,0.0
4243,0.0
4354,263907785.14446367
4480,0.0
2,1, 7,21, 0,21, 0.00,60.00,SummerDesignDay
10,742186057.1191431
46,249737579.99999974
70,96701579.99999997
345,153035999.9999997
992,231449399.99999977
1016,231449399.99999977
1496,64872058.69485018
1532,57764642.17263899
1556,57764642.17263899
2227,21370617.32278405
2365,7107416.522211183
4121,268.50610955854406
4133,57.4979571114085
4170,146.49394504991597
4230,0.0
4243,0.0
4354,239628191.29024957
4480,0.0
2,1, 7,21, 0,22, 0.00,60.00,SummerDesignDay
10,695464557.7316096
46,249737579.99999974
70,96701579.99999997
345,153035999.9999997
992,231449399.99999977
1016,231449399.99999977
1496,64922865.722470808
1532,57764642.17263899
1556,57764642.17263899
2227,20636469.38136016
2365,7158223.549831821
4121,250.15724376305637
4133,44.8134320978562
4170,146.49394504991597
4230,0.0
4243,0.0
4354,193640858.1930054
4480,0.0
2,1, 7,21, 0,23, 0.00,60.00,SummerDesignDay
10,685325229.6033772
46,249737579.99999974
70,96701579.99999997
345,153035999.9999997
992,231449399.99999977
1016,231449399.99999977
1496,64971482.40886495
1532,57764642.17263899
1556,57764642.17263899
2227,21568117.28572672
2365,7206840.236225963
4121,245.985854463036
4133,44.439294074076638
4170,146.49394504991597
4230,0.0
4243,0.0
4354,182569886.3317962
4480,0.0
2,1, 7,21, 0,24, 0.00,60.00,SummerDesignDay
10,675449595.9360411
46,249737579.99999974
70,96701579.99999997
345,153035999.9999997
992,231449399.99999977
1016,231449399.99999977
1496,64970754.45417443
1532,57764642.17263899
1556,57764642.17263899
2227,20635125.14548336
2365,7206112.281535444
4121,242.98799868462326
4133,44.18091451374065
4170,146.49394504991597
4230,0.0
4243,0.0
4354,173627247.80255909
4480,0.0
1,BLUE-CANYON-AP ANN CLG 0.4% CONDNS DP=>MCDB,  39.30,-120.72,  -8.00,1609.00
2,1, 7,21, 0, 1, 0.00,60.00,SummerDesignDay
10,594063591.7312169
46,249737579.99999974
70,96701579.99999997
345,153035999.9999997
992,231449399.99999977
1016,231449399.99999977
1496,64874022.47681676
1532,57764642.17263899
1556,57764642.17263899
2227,20635533.59713476
2365,7109380.304177767
4121,223.93787498643759
4133,40.33378988494232
4170,146.49394504991597
4230,0.0
4243,0.0
4354,92240854.19620708
4480,0.0
2,1, 7,21, 0, 2, 0.00,60.00,SummerDesignDay
10,589607158.3825867
46,249737579.99999974
70,96701579.99999997
345,153035999.9999997
992,231449399.99999977
1016,231449399.99999977
1496,64873908.841009978
1532,57764642.17263899
1556,57764642.17263899
2227,20636134.275495124
2365,7109266.668370979
4121,222.7890336053582
4133,40.346219881781369
4170,146.49394504991597
4230,0.0
4243,0.0
4354,87783821.31805784
4480,0.0
2,1, 7,21, 0, 3, 0.00,60.00,SummerDesignDay
10,587688323.1312053
46,249737579.99999974
70,96701579.99999997
345,153035999.9999997
992,231449399.99999977
1016,231449399.99999977
1496,64873645.110642109
1532,57764642.17263899
1556,57764642.17263899
2227,21566777.900524517
2365,7109002.938003112
4121,222.1547601565862
4133,40.353405234603929
4170,146.49394504991597
4230,0.0
4243,0.0
4354,84934343.07592057
4480,0.0
2,1, 7,21, 0, 4, 0.00,60.00,SummerDesignDay
10,584231509.9722383
46,249737579.99999974
70,96701579.99999997
345,153035999.9999997
992,231449399.99999977
1016,231449399.99999977
1496,64873376.15444998
1532,57764642.17263899
1556,57764642.17263899
2227,20635575.206608453
2365,7108733.981810987
4121,221.61709202899844
4133,40.358784849275938
4170,146.49394504991597
4230,0.0
4243,0.0
4354,82408733.14853762
4480,0.0
2,1, 7,21, 0, 5, 0.00,60.00,SummerDesignDay
10,583382782.0833352
46,249737579.99999974
70,96701579.99999997
345,153035999.9999997
992,231449399.99999977
1016,231449399.99999977
1496,64873101.82738328
1532,57764642.17263899
1556,57764642.17263899
2227,21383892.267682367
2365,7108459.654744289
4121,221.4270277595749
4133,40.363671796614607
4170,146.49394504991597
4230,0.0
4243,0.0
4354,80811688.38862504
4480,0.0
2,1, 7,21, 0, 6, 0.00,60.00,SummerDesignDay
10,619843808.3543993
46,249737579.99999974
70,96701579.99999997
345,153035999.9999997
992,231449399.99999977
1016,231449399.99999977
1496,64873079.039738718
1532,57764642.17263899
1556,57764642.17263899
2227,20818968.004056079
2365,7108436.8670997279
4121,235.76379403679005
4133,46.80473968466403
4170,146.49394504991597
4230,0.0
4243,0.0
4354,117837624.58654934
4480,0.0
2,1, 7,21, 0, 7, 0.00,60.00,SummerDesignDay
10,720223799.000673
46,249737579.99999974
70,96701579.99999997
345,153035999.9999997
992,231449399.99999977
1016,231449399.99999977
1496,64873173.20494898
1532,57764642.17263899
1556,57764642.17263899
2227,20636063.890797516
2365,7108531.032309987
4121,284.184057270464
4133,83.022809482884
4170,146.49394504991597
4230,0.0
4243,0.0
4354,218400470.92581824
4480,0.0
2,1, 7,21, 0, 8, 0.00,60.00,SummerDesignDay
10,718048644.2094271
46,249737579.99999974
70,96701579.99999997
345,153035999.9999997
992,231449399.99999977
1016,231449399.99999977
1496,64872247.932073768
1532,57764642.17263899
1556,57764642.17263899
2227,21566936.04658031
2365,7107605.759434775
4121,273.75678458290818
4133,64.26803598631224
4170,146.49394504991597
4230,0.0
4243,0.0
4354,215294454.4060623
4480,0.0
2,1, 7,21, 0, 9, 0.00,60.00,SummerDesignDay
10,735642931.523438
46,249737579.99999974
70,96701579.99999997
345,153035999.9999997
992,231449399.99999977
1016,231449399.99999977
1496,64871950.61882144
1532,57764642.17263899
1556,57764642.17263899
2227,20635577.228258619
2365,7107308.446182455
4121,279.80215620297175
4133,61.3181505448884
4170,146.49394504991597
4230,0.0
4243,0.0
4354,233820094.4930231
4480,0.0
2,1, 7,21, 0,10, 0.00,60.00,SummerDesignDay
10,751002135.4921122
46,249737579.99999974
70,96701579.99999997
345,153035999.9999997
992,231449399.99999977
1016,231449399.99999977
1496,64959591.910147558
1532,57764642.17263899
1556,57764642.17263899
2227,21200184.667313748
2365,7194949.737508562
4121,283.6886099737096
4133,60.69375749249534
4170,146.49394504991597
4230,0.0
4243,0.0
4354,248614687.13618834
4480,0.0
2,1, 7,21, 0,11, 0.00,60.00,SummerDesignDay
10,759548248.4747706
46,249737579.99999974
70,96701579.99999997
345,153035999.9999997
992,231449399.99999977
1016,231449399.99999977
1496,64971219.20573385
1532,57764642.17263899
1556,57764642.17263899
2227,21002488.49468217
2365,7206577.033094859
4121,284.2072709196839
4133,60.128201549006998
4170,146.49394504991597
4230,0.0
4243,0.0
4354,257358495.7728175
4480,0.0
2,1, 7,21, 0,12, 0.00,60.00,SummerDesignDay
10,764446575.8755452
46,249737579.99999974
70,96701579.99999997
345,153035999.9999997
992,231449399.99999977
1016,231449399.99999977
1496,64970467.83604443
1532,57764642.17263899
1556,57764642.17263899
2227,20636042.182104209
2365,7205825.663405436
4121,283.6516283047346
4133,59.637724620161289
4170,146.49394504991597
4230,0.0
4243,0.0
4354,262623270.0418126
4480,0.0
2,1, 7,21, 0,13, 0.00,60.00,SummerDesignDay
10,770991051.9251113
46,249737579.99999974
70,96701579.99999997
345,153035999.9999997
992,231449399.99999977
1016,231449399.99999977
1496,64909907.73131995
1532,57764642.17263899
1556,57764642.17263899
2227,21567092.542404739
2365,7145265.558680958
4121,284.1731676391906
4133,59.39284111485922
4170,146.49394504991597
4230,0.0
4243,0.0
4354,268236695.20953889
4480,0.0
2,1, 7,21, 0,14, 0.00,60.00,SummerDesignDay
10,778912838.5933993
46,249737579.99999974
70,96701579.99999997
345,153035999.9999997
992,231449399.99999977
1016,231449399.99999977
1496,64874007.10527524
1532,57764642.17263899
1556,57764642.17263899
2227,20635321.807726537
2365,7109364.932636255
4121,287.37748627374949
4133,59.71608010380709
4170,146.49394504991597
4230,0.0
4243,0.0
4354,277090249.40818646
4480,0.0
2,1, 7,21, 0,15, 0.00,60.00,SummerDesignDay
10,791215674.7971399
46,249737579.99999974
70,96701579.99999997
345,153035999.9999997
992,231449399.99999977
1016,231449399.99999977
1496,64873745.311710309
1532,57764642.17263899
1556,57764642.17263899
2227,21016981.783796014
2365,7109103.139071313
4121,293.9222801008221
4133,60.86000056721984
4170,146.49394504991597
4230,0.0
4243,0.0
4354,289011419.0910637
4480,0.0
2,1, 7,21, 0,16, 0.00,60.00,SummerDesignDay
10,796572462.5922122
46,249737579.99999974
70,96701579.99999997
345,153035999.9999997
992,231449399.99999977
1016,231449399.99999977
1496,64873478.345752079
1532,57764642.17263899
1556,57764642.17263899
2227,21185775.181131197
2365,7108836.173113082
4121,298.6213520569507
4133,61.90596195143584
4170,146.49394504991597
4230,0.0
4243,0.0
4354,294199408.78972896
4480,0.0
2,1, 7,21, 0,17, 0.00,60.00,SummerDesignDay
10,789736686.2222273
46,249737579.99999974
70,96701579.99999997
345,153035999.9999997
992,231449399.99999977
1016,231449399.99999977
1496,64873206.0643128
1532,57764642.17263899
1556,57764642.17263899
2227,20635982.223915154
2365,7108563.891673813
4121,297.5534803039878
4133,61.77840889952211
4170,146.49394504991597
4230,0.0
4243,0.0
4354,287913426.44483187
4480,0.0
2,1, 7,21, 0,18, 0.00,60.00,SummerDesignDay
10,778396423.6438835
46,249737579.99999974
70,96701579.99999997
345,153035999.9999997
992,231449399.99999977
1016,231449399.99999977
1496,64872928.319034028
1532,57764642.17263899
1556,57764642.17263899
2227,21567247.60303689
2365,7108286.146395033
4121,293.25181126540977
4133,61.05794872561006
4170,146.49394504991597
4230,0.0
4243,0.0
4354,275641902.7890353
4480,0.0
2,1, 7,21, 0,19, 0.00,60.00,SummerDesignDay
10,753676186.5026982
46,249737579.99999974
70,96701579.99999997
345,153035999.9999997
992,231449399.99999977
1016,231449399.99999977
1496,64872644.95604245
1532,57764642.17263899
1556,57764642.17263899
2227,20635179.22148493
2365,7108002.7834034529
4121,282.94509351835577
4133,58.89375058778714
4170,146.49394504991597
4230,0.0
4243,0.0
4354,251853744.33611978
4480,0.0
2,1, 7,21, 0,20, 0.00,60.00,SummerDesignDay
10,716258417.4265936
46,249737579.99999974
70,96701579.99999997
345,153035999.9999997
992,231449399.99999977
1016,231449399.99999977
1496,64872355.81569221
1532,57764642.17263899
1556,57764642.17263899
2227,20833750.736842835
2365,7107713.643053213
4121,264.15935081689829
4133,56.08945107605322
4170,146.49394504991597
4230,0.0
4243,0.0
4354,214237422.53039996
4480,0.0
2,1, 7,21, 0,21, 0.00,60.00,SummerDesignDay
10,692583107.5535833
46,249737579.99999974
70,96701579.99999997
345,153035999.9999997
992,231449399.99999977
1016,231449399.99999977
1496,64872060.7322926
1532,57764642.17263899
1556,57764642.17263899
2227,21369176.347188608
2365,7107418.559653613
4121,252.4629981515571
4133,53.87111598168012
4170,146.49394504991597
4230,0.0
4243,0.0
4354,190026698.74339653
4480,0.0
2,1, 7,21, 0,22, 0.00,60.00,SummerDesignDay
10,637725467.0478263
46,249737579.99999974
70,96701579.99999997
345,153035999.9999997
992,231449399.99999977
1016,231449399.99999977
1496,64922194.442095708
1532,57764642.17263899
1556,57764642.17263899
2227,20635794.931060416
2365,7157552.269456715
4121,236.6674283269153
4133,43.91398521937411
4170,146.49394504991597
4230,0.0
4243,0.0
4354,135902455.44933749
4480,0.0
2,1, 7,21, 0,23, 0.00,60.00,SummerDesignDay
10,627308657.3631065
46,249737579.99999974
70,96701579.99999997
345,153035999.9999997
992,231449399.99999977
1016,231449399.99999977
1496,64971487.36758408
1532,57764642.17263899
1556,57764642.17263899
2227,21568117.311880538
2365,7206845.194945086
4121,232.2744526397269
4133,43.56563218215307
4170,146.49394504991597
4230,0.0
4243,0.0
4354,124553327.7767733
4480,0.0
2,1, 7,21, 0,24, 0.00,60.00,SummerDesignDay
10,617437594.5206189
46,249737579.99999974
70,96701579.99999997
345,153035999.9999997
992,231449399.99999977
1016,231449399.99999977
1496,64970759.41006608
1532,57764642.17263899
1556,57764642.17263899
2227,20635125.241297936
2365,7206117.237427089
4121,229.14688644205689
4133,43.31067256153591
4170,146.49394504991597
4230,0.0
4243,0.0
4354,115615260.1324345
4480,0.0
1,BLUE-CANYON-AP ANN HTG 99.6% CONDNS DB,  39.30,-120.72,  -8.00,1609.00
2,1, 1,21, 0, 1, 0.00,60.00,WinterDesignDay
10,72246.1098731783
46,0.0
70,0.0
345,0.0
992,0.0
1016,0.0
1496,744679510.7732084
1532,0.0
1556,0.0
2227,72000.0
2365,579716.5921531227
4121,246.1098731782138
4133,40.24809828246581
4170,146.49394504991597
4230,744099794.1810551
4243,0.0
4354,0.0
4480,0.0
2,1, 1,21, 0, 2, 0.00,60.00,WinterDesignDay
10,72257.42246817763
46,0.0
70,0.0
345,0.0
992,0.0
1016,0.0
1496,823886137.5615007
1532,0.0
1556,0.0
2227,72000.0
2365,833426.0309784836
4121,257.42246817756065
4133,40.24809828246582
4170,146.49394504991597
4230,823052711.5305221
4243,0.0
4354,0.0
4480,0.0
2,1, 1,21, 0, 3, 0.00,60.00,WinterDesignDay
10,72266.79791361347
46,0.0
70,0.0
345,0.0
992,0.0
1016,0.0
1496,907260479.6762498
1532,0.0
1556,0.0
2227,72000.0
2365,833372.2684415961
4121,266.7979136133904
4133,40.24809828246582
4170,146.49394504991597
4230,906427107.4078081
4243,0.0
4354,0.0
4480,0.0
2,1, 1,21, 0, 4, 0.00,60.00,WinterDesignDay
10,72273.6760170521
46,0.0
70,0.0
345,0.0
992,0.0
1016,0.0
1496,965717864.4883597
1532,0.0
1556,0.0
2227,72000.0
2365,833413.0370370636
4121,273.67601705202756
4133,40.24809828246582
4170,146.49394504991597
4230,964884451.4513227
4243,0.0
4354,0.0
4480,0.0
2,1, 1,21, 0, 5, 0.00,60.00,WinterDesignDay
10,72278.87191225826
46,0.0
70,0.0
345,0.0
992,0.0
1016,0.0
1496,1006861020.5906816
1532,0.0
1556,0.0
2227,72000.0
2365,833295.445626233
4121,278.87191225816596
4133,40.24809828246582
4170,146.49394504991597
4230,1006027725.1450553
4243,0.0
4354,0.0
4480,0.0
2,1, 1,21, 0, 6, 0.00,60.00,WinterDesignDay
10,4970579.212461054
46,0.0
70,0.0
345,0.0
992,0.0
1016,0.0
1496,1202180274.3778759
1532,0.0
1556,0.0
2227,72000.0
2365,670187.0120623611
4121,310.0540954119549
4133,68.36640600999256
4170,146.49394504991597
4230,1201510087.3658133
4243,0.0
4354,4898269.158365643
4480,0.0
2,1, 1,21, 0, 7, 0.00,60.00,WinterDesignDay
10,4371955.299065084
46,0.0
70,0.0
345,0.0
992,0.0
1016,0.0
1496,1829685723.6905623
1532,0.0
1556,0.0
2227,72000.0
2365,742981.3243281075
4121,456.8710175442254
4133,140.43728412170075
4170,146.49394504991597
4230,1828942742.3662344
4243,0.0
4354,4299498.428047541
4480,0.0
2,1, 1,21, 0, 8, 0.00,60.00,WinterDesignDay
10,72388.26133201101
46,0.0
70,0.0
345,0.0
992,0.0
1016,0.0
1496,1708034937.519365
1532,0.0
1556,0.0
2227,72000.0
2365,833487.5747249322
4121,388.2613320109476
4133,75.91371921613089
4170,146.49394504991597
4230,1707201449.9446402
4243,0.0
4354,0.0
4480,0.0
2,1, 1,21, 0, 9, 0.00,60.00,WinterDesignDay
10,72348.6875392912
46,0.0
70,0.0
345,0.0
992,0.0
1016,0.0
1496,1607892276.2255917
1532,0.0
1556,0.0
2227,72000.0
2365,833431.2692268391
4121,348.6875392911385
4133,43.130694275469249
4170,146.49394504991597
4230,1607058844.956365
4243,0.0
4354,0.0
4480,0.0
2,1, 1,21, 0,10, 0.00,60.00,WinterDesignDay
10,72337.88097219522
46,0.0
70,0.0
345,0.0
992,0.0
1016,0.0
1496,1523597591.3907786
1532,0.0
1556,0.0
2227,72000.0
2365,833504.8520476382
4121,337.8809721951553
4133,42.27406618922584
4170,146.49394504991597
4230,1522764086.5387307
4243,0.0
4354,0.0
4480,0.0
2,1, 1,21, 0,11, 0.00,60.00,WinterDesignDay
10,72330.22299974668
46,0.0
70,0.0
345,0.0
992,0.0
1016,0.0
1496,1466767925.1332012
1532,0.0
1556,0.0
2227,72000.0
2365,833504.5252919081
4121,330.2229997466188
4133,41.86927846836079
4170,146.49394504991597
4230,1465934420.6079095
4243,0.0
4354,0.0
4480,0.0
2,1, 1,21, 0,12, 0.00,60.00,WinterDesignDay
10,72325.18965203238
46,0.0
70,0.0
345,0.0
992,0.0
1016,0.0
1496,1429048886.5447572
1532,0.0
1556,0.0
2227,72000.0
2365,579644.4084255456
4121,325.1896520323059
4133,41.64461518695015
4170,146.49394504991597
4230,1428469242.1363319
4243,0.0
4354,0.0
4480,0.0
2,1, 1,21, 0,13, 0.00,60.00,WinterDesignDay
10,72321.7473456204
46,0.0
70,0.0
345,0.0
992,0.0
1016,0.0
1496,1403529124.3809744
1532,0.0
1556,0.0
2227,72000.0
2365,833504.3427996136
4121,321.7473456203358
4133,41.507067795043607
4170,146.49394504991597
4230,1402695620.0381749
4243,0.0
4354,0.0
4480,0.0
2,1, 1,21, 0,14, 0.00,60.00,WinterDesignDay
10,72319.35907326214
46,0.0
70,0.0
345,0.0
992,0.0
1016,0.0
1496,1385145004.8695727
1532,0.0
1556,0.0
2227,72000.0
2365,833504.9069172378
4121,319.359073262071
4133,41.443722236071348
4170,146.49394504991597
4230,1384311499.9626556
4243,0.0
4354,0.0
4480,0.0
2,1, 1,21, 0,15, 0.00,60.00,WinterDesignDay
10,72317.69824278989
46,0.0
70,0.0
345,0.0
992,0.0
1016,0.0
1496,1372286829.26269
1532,0.0
1556,0.0
2227,72000.0
2365,833505.7667463315
4121,317.69824278980567
4133,41.412867428458358
4170,146.49394504991597
4230,1371453323.4959439
4243,0.0
4354,0.0
4480,0.0
2,1, 1,21, 0,16, 0.00,60.00,WinterDesignDay
10,72316.50904037185
46,0.0
70,0.0
345,0.0
992,0.0
1016,0.0
1496,1362953726.4047707
1532,0.0
1556,0.0
2227,72000.0
2365,833506.9217146617
4121,316.5090403717789
4133,41.39209084787689
4170,146.49394504991597
4230,1362120219.4830559
4243,0.0
4354,0.0
4480,0.0
2,1, 1,21, 0,17, 0.00,60.00,WinterDesignDay
10,72315.64904934366
46,0.0
70,0.0
345,0.0
992,0.0
1016,0.0
1496,1356154863.1979418
1532,0.0
1556,0.0
2227,72000.0
2365,833508.3712510639
4121,315.6490493435682
4133,41.3756247732358
4170,146.49394504991597
4230,1355321354.8266907
4243,0.0
4354,0.0
4480,0.0
2,1, 1,21, 0,18, 0.00,60.00,WinterDesignDay
10,72315.03065985891
46,0.0
70,0.0
345,0.0
992,0.0
1016,0.0
1496,1350948033.0910998
1532,0.0
1556,0.0
2227,72000.0
2365,579660.5784711447
4121,315.0306598588401
4133,41.3639841887433
4170,146.49394504991597
4230,1350368372.5126286
4243,0.0
4354,0.0
4480,0.0
2,1, 1,21, 0,19, 0.00,60.00,WinterDesignDay
10,72314.59986838023
46,0.0
70,0.0
345,0.0
992,0.0
1016,0.0
1496,1347709690.966805
1532,0.0
1556,0.0
2227,72000.0
2365,833511.7307463645
4121,314.5998683801454
4133,41.355944119068528
4170,146.49394504991597
4230,1346876179.2360588
4243,0.0
4354,0.0
4480,0.0
2,1, 1,21, 0,20, 0.00,60.00,WinterDesignDay
10,72314.27931537575
46,0.0
70,0.0
345,0.0
992,0.0
1016,0.0
1496,1345106217.047452
1532,0.0
1556,0.0
2227,72000.0
2365,833514.0608645151
4121,314.279315375667
4133,41.349398297910017
4170,146.49394504991597
4230,1344272702.9865874
4243,0.0
4354,0.0
4480,0.0
2,1, 1,21, 0,21, 0.00,60.00,WinterDesignDay
10,72314.04293689982
46,0.0
70,0.0
345,0.0
992,0.0
1016,0.0
1496,1343153561.7523285
1532,0.0
1556,0.0
2227,72000.0
2365,833516.6832763105
4121,314.042936899748
4133,41.34495983886106
4170,146.49394504991597
4230,1342320045.0690523
4243,0.0
4354,0.0
4480,0.0
2,1, 1,21, 0,22, 0.00,60.00,WinterDesignDay
10,846454.43925783
46,0.0
70,0.0
345,0.0
992,0.0
1016,0.0
1496,1141437450.5110262
1532,0.0
1556,0.0
2227,846141.5173387998
2365,833542.3983431344
4121,312.9219190300621
4133,40.40009900436385
4170,146.49394504991597
4230,1140603908.1126829
4243,0.0
4354,0.0
4480,0.0
2,1, 1,21, 0,23, 0.00,60.00,WinterDesignDay
10,72194.54442218691
46,0.0
70,0.0
345,0.0
992,0.0
1016,0.0
1496,518045352.21009007
1532,0.0
1556,0.0
2227,72000.0
2365,774367.6365420329
4121,194.54442218685666
4133,40.42815555807525
4170,146.49394504991597
4230,517270984.5735481
4243,0.0
4354,0.0
4480,0.0
2,1, 1,21, 0,24, 0.00,60.00,WinterDesignDay
10,72230.7935836412
46,0.0
70,0.0
345,0.0
992,0.0
1016,0.0
1496,749512556.9464072
1532,0.0
1556,0.0
2227,72000.0
2365,638644.7815445614
4121,230.79358364113998
4133,40.779391915278228
4170,146.49394504991597
4230,748873912.1648626
4243,0.0
4354,0.0
4480,0.0
1,BLUE-CANYON-AP AUG CLG 0.4% CONDNS DB=>MCWB,  39.30,-120.72,  -8.00,1609.00
2,1, 8,21, 0, 1, 0.00,60.00,SummerDesignDay
10,649867131.2291679
46,249737579.99999974
70,96701579.99999997
345,153035999.9999997
992,231449399.99999977
1016,231449399.99999977
1496,64466956.70882557
1532,57764642.17263899
1556,57764642.17263899
2227,19655251.337985606
2365,6702314.53618658
4121,236.44796264237767
4133,40.36073892523046
4170,146.49394504991597
4230,0.0
4243,0.0
4354,149024663.4432197
4480,0.0
2,1, 8,21, 0, 2, 0.00,60.00,SummerDesignDay
10,646244594.0035369
46,249737579.99999974
70,96701579.99999997
345,153035999.9999997
992,231449399.99999977
1016,231449399.99999977
1496,64794864.10542312
1532,57764642.17263899
1556,57764642.17263899
2227,20337659.58109867
2365,7030221.932784142
4121,235.55782775079357
4133,40.372375965190048
4170,146.49394504991597
4230,0.0
4243,0.0
4354,144719718.8646105
4480,0.0
2,1, 8,21, 0, 3, 0.00,60.00,SummerDesignDay
10,643703408.0534002
46,249737579.99999974
70,96701579.99999997
345,153035999.9999997
992,231449399.99999977
1016,231449399.99999977
1496,64796039.328455489
1532,57764642.17263899
1556,57764642.17263899
2227,20477561.239243144