Program Version,EnergyPlus, Version 9.0.1-bb7ca4f0da, YMD=2019.12.17 18:17
1,5,Environment Title[],Latitude[deg],Longitude[deg],Time Zone[],Elevation[m]
2,8,Day of Simulation[],Month[],Day of Month[],DST Indicator[1=yes 0=no],Hour[],StartMinute[],EndMinute[],DayType
3,5,Cumulative Day of Simulation[],Month[],Day of Month[],DST Indicator[1=yes 0=no],DayType  ! When Daily Report Variables Requested
4,2,Cumulative Days of Simulation[],Month[]  ! When Monthly Report Variables Requested
5,1,Cumulative Days of Simulation[] ! When Run Period Report Variables Requested
6,1,Calendar Year of Simulation[] ! When Annual Report Variables Requested
7,1,Environment,Site Outdoor Air Drybulb Temperature [C] !TimeStep
4438,1,BASE BLR,Boiler Heating Rate [W] !Hourly
End of Data Dictionary
1,PALMDALE-AIRPORT ANN CLG 0.4% CONDNS DB=>MCWB,  34.63,-118.08,  -8.00, 769.00
2,1, 7,21, 0, 1, 0.00,15.00,SummerDesignDay
7,25.473
2,1, 7,21, 0, 1,15.00,30.00,SummerDesignDay
7,25.23
2,1, 7,21, 0, 1,30.00,45.00,SummerDesignDay
7,24.987000000000003
2,1, 7,21, 0, 1,45.00,60.00,SummerDesignDay
7,24.744
2,1, 7,21, 0, 1, 0.00,60.00,SummerDesignDay
4438,0.0
2,1, 7,21, 0, 2, 0.00,15.00,SummerDesignDay
7,24.582
2,1, 7,21, 0, 2,15.00,30.00,SummerDesignDay
7,24.42
2,1, 7,21, 0, 2,30.00,45.00,SummerDesignDay
7,24.258000000000004
2,1, 7,21, 0, 2,45.00,60.00,SummerDesignDay
7,24.096
2,1, 7,21, 0, 2, 0.00,60.00,SummerDesignDay
4438,0.0
2,1, 7,21, 0, 3, 0.00,15.00,SummerDesignDay
7,23.9745
2,1, 7,21, 0, 3,15.00,30.00,SummerDesignDay
7,23.853
2,1, 7,21, 0, 3,30.00,45.00,SummerDesignDay
7,23.731500000000005
2,1, 7,21, 0, 3,45.00,60.00,SummerDesignDay
7,23.61
2,1, 7,21, 0, 3, 0.00,60.00,SummerDesignDay
4438,0.0
2,1, 7,21, 0, 4, 0.00,15.00,SummerDesignDay
7,23.488500000000003
2,1, 7,21, 0, 4,15.00,30.00,SummerDesignDay
7,23.367
2,1, 7,21, 0, 4,30.00,45.00,SummerDesignDay
7,23.2455
2,1, 7,21, 0, 4,45.00,60.00,SummerDesignDay
7,23.124000000000004
2,1, 7,21, 0, 4, 0.00,60.00,SummerDesignDay
4438,0.0
2,1, 7,21, 0, 5, 0.00,15.00,SummerDesignDay
7,23.043
2,1, 7,21, 0, 5,15.00,30.00,SummerDesignDay
7,22.962
2,1, 7,21, 0, 5,30.00,45.00,SummerDesignDay
7,22.881
2,1, 7,21, 0, 5,45.00,60.00,SummerDesignDay
7,22.8
2,1, 7,21, 0, 5, 0.00,60.00,SummerDesignDay
4438,0.0
2,1, 7,21, 0, 6, 0.00,15.00,SummerDesignDay
7,22.881
2,1, 7,21, 0, 6,15.00,30.00,SummerDesignDay
7,22.962
2,1, 7,21, 0, 6,30.00,45.00,SummerDesignDay
7,23.043
2,1, 7,21, 0, 6,45.00,60.00,SummerDesignDay
7,23.124000000000004
2,1, 7,21, 0, 6, 0.00,60.00,SummerDesignDay
4438,0.0
2,1, 7,21, 0, 7, 0.00,15.00,SummerDesignDay
7,23.4075
2,1, 7,21, 0, 7,15.00,30.00,SummerDesignDay
7,23.691
2,1, 7,21, 0, 7,30.00,45.00,SummerDesignDay
7,23.9745
2,1, 7,21, 0, 7,45.00,60.00,SummerDesignDay
7,24.258000000000004
2,1, 7,21, 0, 7, 0.00,60.00,SummerDesignDay
4438,0.0
2,1, 7,21, 0, 8, 0.00,15.00,SummerDesignDay
7,24.9465
2,1, 7,21, 0, 8,15.00,30.00,SummerDesignDay
7,25.635
2,1, 7,21, 0, 8,30.00,45.00,SummerDesignDay
7,26.323500000000004
2,1, 7,21, 0, 8,45.00,60.00,SummerDesignDay
7,27.012
2,1, 7,21, 0, 8, 0.00,60.00,SummerDesignDay
4438,0.0
2,1, 7,21, 0, 9, 0.00,15.00,SummerDesignDay
7,27.7815
2,1, 7,21, 0, 9,15.00,30.00,SummerDesignDay
7,28.551000000000003
2,1, 7,21, 0, 9,30.00,45.00,SummerDesignDay
7,29.3205
2,1, 7,21, 0, 9,45.00,60.00,SummerDesignDay
7,30.09
2,1, 7,21, 0, 9, 0.00,60.00,SummerDesignDay
4438,0.0
2,1, 7,21, 0,10, 0.00,15.00,SummerDesignDay
7,30.7785
2,1, 7,21, 0,10,15.00,30.00,SummerDesignDay
7,31.467
2,1, 7,21, 0,10,30.00,45.00,SummerDesignDay
7,32.1555
2,1, 7,21, 0,10,45.00,60.00,SummerDesignDay
7,32.844
2,1, 7,21, 0,10, 0.00,60.00,SummerDesignDay
4438,0.0
2,1, 7,21, 0,11, 0.00,15.00,SummerDesignDay
7,33.4515
2,1, 7,21, 0,11,15.00,30.00,SummerDesignDay
7,34.059
2,1, 7,21, 0,11,30.00,45.00,SummerDesignDay
7,34.6665
2,1, 7,21, 0,11,45.00,60.00,SummerDesignDay
7,35.274
2,1, 7,21, 0,11, 0.00,60.00,SummerDesignDay
4438,0.0
2,1, 7,21, 0,12, 0.00,15.00,SummerDesignDay
7,35.679
2,1, 7,21, 0,12,15.00,30.00,SummerDesignDay
7,36.084
2,1, 7,21, 0,12,30.00,45.00,SummerDesignDay
7,36.489
2,1, 7,21, 0,12,45.00,60.00,SummerDesignDay
7,36.894
2,1, 7,21, 0,12, 0.00,60.00,SummerDesignDay
4438,0.0
2,1, 7,21, 0,13, 0.00,15.00,SummerDesignDay
7,37.218
2,1, 7,21, 0,13,15.00,30.00,SummerDesignDay
7,37.542
2,1, 7,21, 0,13,30.00,45.00,SummerDesignDay
7,37.866
2,1, 7,21, 0,13,45.00,60.00,SummerDesignDay
7,38.19
2,1, 7,21, 0,13, 0.00,60.00,SummerDesignDay
4438,0.0
2,1, 7,21, 0,14, 0.00,15.00,SummerDesignDay
7,38.3925
2,1, 7,21, 0,14,15.00,30.00,SummerDesignDay
7,38.595
2,1, 7,21, 0,14,30.00,45.00,SummerDesignDay
7,38.7975
2,1, 7,21, 0,14,45.00,60.00,SummerDesignDay
7,39.0
2,1, 7,21, 0,14, 0.00,60.00,SummerDesignDay
4438,0.0
2,1, 7,21, 0,15, 0.00,15.00,SummerDesignDay
7,39.0
2,1, 7,21, 0,15,15.00,30.00,SummerDesignDay
7,39.0
2,1, 7,21, 0,15,30.00,45.00,SummerDesignDay
7,39.0
2,1, 7,21, 0,15,45.00,60.00,SummerDesignDay
7,39.0
2,1, 7,21, 0,15, 0.00,60.00,SummerDesignDay
4438,0.0
2,1, 7,21, 0,16, 0.00,15.00,SummerDesignDay
7,38.757
2,1, 7,21, 0,16,15.00,30.00,SummerDesignDay
7,38.514
2,1, 7,21, 0,16,30.00,45.00,SummerDesignDay
7,38.271
2,1, 7,21, 0,16,45.00,60.00,SummerDesignDay
7,38.028
2,1, 7,21, 0,16, 0.00,60.00,SummerDesignDay
4438,0.0
2,1, 7,21, 0,17, 0.00,15.00,SummerDesignDay
7,37.704
2,1, 7,21, 0,17,15.00,30.00,SummerDesignDay
7,37.38
2,1, 7,21, 0,17,30.00,45.00,SummerDesignDay
7,37.056
2,1, 7,21, 0,17,45.00,60.00,SummerDesignDay
7,36.732
2,1, 7,21, 0,17, 0.00,60.00,SummerDesignDay
4438,0.0
2,1, 7,21, 0,18, 0.00,15.00,SummerDesignDay
7,36.327
2,1, 7,21, 0,18,15.00,30.00,SummerDesignDay
7,35.922
2,1, 7,21, 0,18,30.00,45.00,SummerDesignDay
7,35.517
2,1, 7,21, 0,18,45.00,60.00,SummerDesignDay
7,35.112
2,1, 7,21, 0,18, 0.00,60.00,SummerDesignDay
4438,0.0
2,1, 7,21, 0,19, 0.00,15.00,SummerDesignDay
7,34.5045
2,1, 7,21, 0,19,15.00,30.00,SummerDesignDay
7,33.897
2,1, 7,21, 0,19,30.00,45.00,SummerDesignDay
7,33.289500000000007
2,1, 7,21, 0,19,45.00,60.00,SummerDesignDay
7,32.682
2,1, 7,21, 0,19, 0.00,60.00,SummerDesignDay
4438,0.0
2,1, 7,21, 0,20, 0.00,15.00,SummerDesignDay
7,32.2365
2,1, 7,21, 0,20,15.00,30.00,SummerDesignDay
7,31.791
2,1, 7,21, 0,20,30.00,45.00,SummerDesignDay
7,31.3455
2,1, 7,21, 0,20,45.00,60.00,SummerDesignDay
7,30.9
2,1, 7,21, 0,20, 0.00,60.00,SummerDesignDay
4438,0.0
2,1, 7,21, 0,21, 0.00,15.00,SummerDesignDay
7,30.5355
2,1, 7,21, 0,21,15.00,30.00,SummerDesignDay
7,30.171
2,1, 7,21, 0,21,30.00,45.00,SummerDesignDay
7,29.8065
2,1, 7,21, 0,21,45.00,60.00,SummerDesignDay
7,29.442
2,1, 7,21, 0,21, 0.00,60.00,SummerDesignDay
4438,0.0
2,1, 7,21, 0,22, 0.00,15.00,SummerDesignDay
7,29.0775
2,1, 7,21, 0,22,15.00,30.00,SummerDesignDay
7,28.713
2,1, 7,21, 0,22,30.00,45.00,SummerDesignDay
7,28.3485
2,1, 7,21, 0,22,45.00,60.00,SummerDesignDay
7,27.984
2,1, 7,21, 0,22, 0.00,60.00,SummerDesignDay
4438,0.0
2,1, 7,21, 0,23, 0.00,15.00,SummerDesignDay
7,27.700499999999999
2,1, 7,21, 0,23,15.00,30.00,SummerDesignDay
7,27.417
2,1, 7,21, 0,23,30.00,45.00,SummerDesignDay
7,27.133499999999999
2,1, 7,21, 0,23,45.00,60.00,SummerDesignDay
7,26.85
2,1, 7,21, 0,23, 0.00,60.00,SummerDesignDay
4438,0.0
2,1, 7,21, 0,24, 0.00,15.00,SummerDesignDay
7,26.5665
2,1, 7,21, 0,24,15.00,30.00,SummerDesignDay
7,26.283
2,1, 7,21, 0,24,30.00,45.00,SummerDesignDay
7,25.9995
2,1, 7,21, 0,24,45.00,60.00,SummerDesignDay
7,25.716
2,1, 7,21, 0,24, 0.00,60.00,SummerDesignDay
4438,0.0
1,PALMDALE-AIRPORT ANN CLG 0.4% CONDNS DP=>MCDB,  34.63,-118.08,  -8.00, 769.00
2,1, 7,21, 0, 1, 0.00,15.00,SummerDesignDay
7,15.773000000000002
2,1, 7,21, 0, 1,15.00,30.00,SummerDesignDay
7,15.530000000000002
2,1, 7,21, 0, 1,30.00,45.00,SummerDesignDay
7,15.287
2,1, 7,21, 0, 1,45.00,60.00,SummerDesignDay
7,15.044
2,1, 7,21, 0, 1, 0.00,60.00,SummerDesignDay
4438,0.0
2,1, 7,21, 0, 2, 0.00,15.00,SummerDesignDay
7,14.882000000000002
2,1, 7,21, 0, 2,15.00,30.00,SummerDesignDay
7,14.72
2,1, 7,21, 0, 2,30.00,45.00,SummerDesignDay
7,14.558000000000002
2,1, 7,21, 0, 2,45.00,60.00,SummerDesignDay
7,14.396
2,1, 7,21, 0, 2, 0.00,60.00,SummerDesignDay
4438,0.0
2,1, 7,21, 0, 3, 0.00,15.00,SummerDesignDay
7,14.274500000000002
2,1, 7,21, 0, 3,15.00,30.00,SummerDesignDay
7,14.153
2,1, 7,21, 0, 3,30.00,45.00,SummerDesignDay
7,14.031500000000003
2,1, 7,21, 0, 3,45.00,60.00,SummerDesignDay
7,13.910000000000002
2,1, 7,21, 0, 3, 0.00,60.00,SummerDesignDay
4438,0.0
2,1, 7,21, 0, 4, 0.00,15.00,SummerDesignDay
7,13.788500000000003
2,1, 7,21, 0, 4,15.00,30.00,SummerDesignDay
7,13.667000000000002
2,1, 7,21, 0, 4,30.00,45.00,SummerDesignDay
7,13.545500000000003
2,1, 7,21, 0, 4,45.00,60.00,SummerDesignDay
7,13.424000000000002
2,1, 7,21, 0, 4, 0.00,60.00,SummerDesignDay
4438,0.0
2,1, 7,21, 0, 5, 0.00,15.00,SummerDesignDay
7,13.343000000000002
2,1, 7,21, 0, 5,15.00,30.00,SummerDesignDay
7,13.262
2,1, 7,21, 0, 5,30.00,45.00,SummerDesignDay
7,13.181000000000001
2,1, 7,21, 0, 5,45.00,60.00,SummerDesignDay
7,13.100000000000002
2,1, 7,21, 0, 5, 0.00,60.00,SummerDesignDay
4438,0.0
2,1, 7,21, 0, 6, 0.00,15.00,SummerDesignDay
7,13.181000000000001
2,1, 7,21, 0, 6,15.00,30.00,SummerDesignDay
7,13.262
2,1, 7,21, 0, 6,30.00,45.00,SummerDesignDay
7,13.343000000000002
2,1, 7,21, 0, 6,45.00,60.00,SummerDesignDay
7,13.424000000000002
2,1, 7,21, 0, 6, 0.00,60.00,SummerDesignDay
4438,0.0
2,1, 7,21, 0, 7, 0.00,15.00,SummerDesignDay
7,13.707500000000002
2,1, 7,21, 0, 7,15.00,30.00,SummerDesignDay
7,13.991
2,1, 7,21, 0, 7,30.00,45.00,SummerDesignDay
7,14.274500000000002
2,1, 7,21, 0, 7,45.00,60.00,SummerDesignDay
7,14.558000000000002
2,1, 7,21, 0, 7, 0.00,60.00,SummerDesignDay
4438,0.0
2,1, 7,21, 0, 8, 0.00,15.00,SummerDesignDay
7,15.246500000000003
2,1, 7,21, 0, 8,15.00,30.00,SummerDesignDay
7,15.935000000000003
2,1, 7,21, 0, 8,30.00,45.00,SummerDesignDay
7,16.6235
2,1, 7,21, 0, 8,45.00,60.00,SummerDesignDay
7,17.312
2,1, 7,21, 0, 8, 0.00,60.00,SummerDesignDay
4438,0.0
2,1, 7,21, 0, 9, 0.00,15.00,SummerDesignDay
7,18.081500000000007
2,1, 7,21, 0, 9,15.00,30.00,SummerDesignDay
7,18.851
2,1, 7,21, 0, 9,30.00,45.00,SummerDesignDay
7,19.6205
2,1, 7,21, 0, 9,45.00,60.00,SummerDesignDay
7,20.39
2,1, 7,21, 0, 9, 0.00,60.00,SummerDesignDay
4438,0.0
2,1, 7,21, 0,10, 0.00,15.00,SummerDesignDay
7,21.0785
2,1, 7,21, 0,10,15.00,30.00,SummerDesignDay
7,21.767
2,1, 7,21, 0,10,30.00,45.00,SummerDesignDay
7,22.4555
2,1, 7,21, 0,10,45.00,60.00,SummerDesignDay
7,23.144000000000003
2,1, 7,21, 0,10, 0.00,60.00,SummerDesignDay
4438,0.0
2,1, 7,21, 0,11, 0.00,15.00,SummerDesignDay
7,23.7515
2,1, 7,21, 0,11,15.00,30.00,SummerDesignDay
7,24.359
2,1, 7,21, 0,11,30.00,45.00,SummerDesignDay
7,24.9665
2,1, 7,21, 0,11,45.00,60.00,SummerDesignDay
7,25.574
2,1, 7,21, 0,11, 0.00,60.00,SummerDesignDay
4438,0.0
2,1, 7,21, 0,12, 0.00,15.00,SummerDesignDay
7,25.979
2,1, 7,21, 0,12,15.00,30.00,SummerDesignDay
7,26.384
2,1, 7,21, 0,12,30.00,45.00,SummerDesignDay
7,26.789
2,1, 7,21, 0,12,45.00,60.00,SummerDesignDay
7,27.194000000000004
2,1, 7,21, 0,12, 0.00,60.00,SummerDesignDay
4438,0.0
2,1, 7,21, 0,13, 0.00,15.00,SummerDesignDay
7,27.518
2,1, 7,21, 0,13,15.00,30.00,SummerDesignDay
7,27.842000000000004
2,1, 7,21, 0,13,30.00,45.00,SummerDesignDay
7,28.166
2,1, 7,21, 0,13,45.00,60.00,SummerDesignDay
7,28.490000000000003
2,1, 7,21, 0,13, 0.00,60.00,SummerDesignDay
4438,0.0
2,1, 7,21, 0,14, 0.00,15.00,SummerDesignDay
7,28.6925
2,1, 7,21, 0,14,15.00,30.00,SummerDesignDay
7,28.895
2,1, 7,21, 0,14,30.00,45.00,SummerDesignDay
7,29.0975
2,1, 7,21, 0,14,45.00,60.00,SummerDesignDay
7,29.3
2,1, 7,21, 0,14, 0.00,60.00,SummerDesignDay
4438,0.0
2,1, 7,21, 0,15, 0.00,15.00,SummerDesignDay
7,29.3
2,1, 7,21, 0,15,15.00,30.00,SummerDesignDay
7,29.3
2,1, 7,21, 0,15,30.00,45.00,SummerDesignDay
7,29.3
2,1, 7,21, 0,15,45.00,60.00,SummerDesignDay
7,29.3
2,1, 7,21, 0,15, 0.00,60.00,SummerDesignDay
4438,0.0
2,1, 7,21, 0,16, 0.00,15.00,SummerDesignDay
7,29.057000000000003
2,1, 7,21, 0,16,15.00,30.00,SummerDesignDay
7,28.814
2,1, 7,21, 0,16,30.00,45.00,SummerDesignDay
7,28.571
2,1, 7,21, 0,16,45.00,60.00,SummerDesignDay
7,28.328
2,1, 7,21, 0,16, 0.00,60.00,SummerDesignDay
4438,0.0
2,1, 7,21, 0,17, 0.00,15.00,SummerDesignDay
7,28.004
2,1, 7,21, 0,17,15.00,30.00,SummerDesignDay
7,27.68
2,1, 7,21, 0,17,30.00,45.00,SummerDesignDay
7,27.356
2,1, 7,21, 0,17,45.00,60.00,SummerDesignDay
7,27.032
2,1, 7,21, 0,17, 0.00,60.00,SummerDesignDay
4438,0.0
2,1, 7,21, 0,18, 0.00,15.00,SummerDesignDay
7,26.627000000000004
2,1, 7,21, 0,18,15.00,30.00,SummerDesignDay
7,26.222
2,1, 7,21, 0,18,30.00,45.00,SummerDesignDay
7,25.817
2,1, 7,21, 0,18,45.00,60.00,SummerDesignDay
7,25.412
2,1, 7,21, 0,18, 0.00,60.00,SummerDesignDay
4438,0.0
2,1, 7,21, 0,19, 0.00,15.00,SummerDesignDay
7,24.8045
2,1, 7,21, 0,19,15.00,30.00,SummerDesignDay
7,24.197000000000004
2,1, 7,21, 0,19,30.00,45.00,SummerDesignDay
7,23.5895
2,1, 7,21, 0,19,45.00,60.00,SummerDesignDay
7,22.982
2,1, 7,21, 0,19, 0.00,60.00,SummerDesignDay
4438,0.0
2,1, 7,21, 0,20, 0.00,15.00,SummerDesignDay
7,22.5365
2,1, 7,21, 0,20,15.00,30.00,SummerDesignDay
7,22.091
2,1, 7,21, 0,20,30.00,45.00,SummerDesignDay
7,21.6455
2,1, 7,21, 0,20,45.00,60.00,SummerDesignDay
7,21.200000000000004
2,1, 7,21, 0,20, 0.00,60.00,SummerDesignDay
4438,0.0
2,1, 7,21, 0,21, 0.00,15.00,SummerDesignDay
7,20.835500000000005
2,1, 7,21, 0,21,15.00,30.00,SummerDesignDay
7,20.471000000000005
2,1, 7,21, 0,21,30.00,45.00,SummerDesignDay
7,20.1065
2,1, 7,21, 0,21,45.00,60.00,SummerDesignDay
7,19.742
2,1, 7,21, 0,21, 0.00,60.00,SummerDesignDay
4438,0.0
2,1, 7,21, 0,22, 0.00,15.00,SummerDesignDay
7,19.3775
2,1, 7,21, 0,22,15.00,30.00,SummerDesignDay
7,19.013
2,1, 7,21, 0,22,30.00,45.00,SummerDesignDay
7,18.648500000000003
2,1, 7,21, 0,22,45.00,60.00,SummerDesignDay
7,18.284
2,1, 7,21, 0,22, 0.00,60.00,SummerDesignDay
4438,0.0
2,1, 7,21, 0,23, 0.00,15.00,SummerDesignDay
7,18.000500000000004
2,1, 7,21, 0,23,15.00,30.00,SummerDesignDay
7,17.717
2,1, 7,21, 0,23,30.00,45.00,SummerDesignDay
7,17.433500000000003
2,1, 7,21, 0,23,45.00,60.00,SummerDesignDay
7,17.150000000000003
2,1, 7,21, 0,23, 0.00,60.00,SummerDesignDay
4438,0.0
2,1, 7,21, 0,24, 0.00,15.00,SummerDesignDay
7,16.866500000000003
2,1, 7,21, 0,24,15.00,30.00,SummerDesignDay
7,16.583000000000003
2,1, 7,21, 0,24,30.00,45.00,SummerDesignDay
7,16.299500000000003
2,1, 7,21, 0,24,45.00,60.00,SummerDesignDay
7,16.016000000000003
2,1, 7,21, 0,24, 0.00,60.00,SummerDesignDay
4438,0.0
1,PALMDALE-AIRPORT ANN HTG 99.6% CONDNS DB,  34.63,-118.08,  -8.00, 769.00
2,1, 1,21, 0, 1, 0.00,15.00,WinterDesignDay
7,-3.8
2,1, 1,21, 0, 1,15.00,30.00,WinterDesignDay
7,-3.8
2,1, 1,21, 0, 1,30.00,45.00,WinterDesignDay
7,-3.8
2,1, 1,21, 0, 1,45.00,60.00,WinterDesignDay
7,-3.8
2,1, 1,21, 0, 1, 0.00,60.00,WinterDesignDay
4438,74076.40256616146
2,1, 1,21, 0, 2, 0.00,15.00,WinterDesignDay
7,-3.8
2,1, 1,21, 0, 2,15.00,30.00,WinterDesignDay
7,-3.8
2,1, 1,21, 0, 2,30.00,45.00,WinterDesignDay
7,-3.8
2,1, 1,21, 0, 2,45.00,60.00,WinterDesignDay
7,-3.8
2,1, 1,21, 0, 2, 0.00,60.00,WinterDesignDay
4438,76797.24984285842
2,1, 1,21, 0, 3, 0.00,15.00,WinterDesignDay
7,-3.8
2,1, 1,21, 0, 3,15.00,30.00,WinterDesignDay
7,-3.8
2,1, 1,21, 0, 3,30.00,45.00,WinterDesignDay
7,-3.8
2,1, 1,21, 0, 3,45.00,60.00,WinterDesignDay
7,-3.8
2,1, 1,21, 0, 3, 0.00,60.00,WinterDesignDay
4438,81579.26213218936
2,1, 1,21, 0, 4, 0.00,15.00,WinterDesignDay
7,-3.8
2,1, 1,21, 0, 4,15.00,30.00,WinterDesignDay
7,-3.8
2,1, 1,21, 0, 4,30.00,45.00,WinterDesignDay
7,-3.8
2,1, 1,21, 0, 4,45.00,60.00,WinterDesignDay
7,-3.8
2,1, 1,21, 0, 4, 0.00,60.00,WinterDesignDay
4438,86362.69781914905
2,1, 1,21, 0, 5, 0.00,15.00,WinterDesignDay
7,-3.8
2,1, 1,21, 0, 5,15.00,30.00,WinterDesignDay
7,-3.8
2,1, 1,21, 0, 5,30.00,45.00,WinterDesignDay
7,-3.8
2,1, 1,21, 0, 5,45.00,60.00,WinterDesignDay
7,-3.8
2,1, 1,21, 0, 5, 0.00,60.00,WinterDesignDay
4438,89188.18786240359
2,1, 1,21, 0, 6, 0.00,15.00,WinterDesignDay
7,-3.8
2,1, 1,21, 0, 6,15.00,30.00,WinterDesignDay
7,-3.8
2,1, 1,21, 0, 6,30.00,45.00,WinterDesignDay
7,-3.8
2,1, 1,21, 0, 6,45.00,60.00,WinterDesignDay
7,-3.8
2,1, 1,21, 0, 6, 0.00,60.00,WinterDesignDay
4438,134126.404386576
2,1, 1,21, 0, 7, 0.00,15.00,WinterDesignDay
7,-3.8
2,1, 1,21, 0, 7,15.00,30.00,WinterDesignDay
7,-3.8
2,1, 1,21, 0, 7,30.00,45.00,WinterDesignDay
7,-3.8
2,1, 1,21, 0, 7,45.00,60.00,WinterDesignDay
7,-3.8
2,1, 1,21, 0, 7, 0.00,60.00,WinterDesignDay
4438,184263.14887055808
2,1, 1,21, 0, 8, 0.00,15.00,WinterDesignDay
7,-3.8
2,1, 1,21, 0, 8,15.00,30.00,WinterDesignDay
7,-3.8
2,1, 1,21, 0, 8,30.00,45.00,WinterDesignDay
7,-3.8
2,1, 1,21, 0, 8,45.00,60.00,WinterDesignDay
7,-3.8
2,1, 1,21, 0, 8, 0.00,60.00,WinterDesignDay
4438,159951.81221285565
2,1, 1,21, 0, 9, 0.00,15.00,WinterDesignDay
7,-3.8
2,1, 1,21, 0, 9,15.00,30.00,WinterDesignDay
7,-3.8
2,1, 1,21, 0, 9,30.00,45.00,WinterDesignDay
7,-3.8
2,1, 1,21, 0, 9,45.00,60.00,WinterDesignDay
7,-3.8
2,1, 1,21, 0, 9, 0.00,60.00,WinterDesignDay
4438,146414.19592887639
2,1, 1,21, 0,10, 0.00,15.00,WinterDesignDay
7,-3.8
2,1, 1,21, 0,10,15.00,30.00,WinterDesignDay
7,-3.8
2,1, 1,21, 0,10,30.00,45.00,WinterDesignDay
7,-3.8
2,1, 1,21, 0,10,45.00,60.00,WinterDesignDay
7,-3.8
2,1, 1,21, 0,10, 0.00,60.00,WinterDesignDay
4438,139508.28674906546
2,1, 1,21, 0,11, 0.00,15.00,WinterDesignDay
7,-3.8
2,1, 1,21, 0,11,15.00,30.00,WinterDesignDay
7,-3.8
2,1, 1,21, 0,11,30.00,45.00,WinterDesignDay
7,-3.8
2,1, 1,21, 0,11,45.00,60.00,WinterDesignDay
7,-3.8
2,1, 1,21, 0,11, 0.00,60.00,WinterDesignDay
4438,135657.24709495757
2,1, 1,21, 0,12, 0.00,15.00,WinterDesignDay
7,-3.8
2,1, 1,21, 0,12,15.00,30.00,WinterDesignDay
7,-3.8
2,1, 1,21, 0,12,30.00,45.00,WinterDesignDay
7,-3.8
2,1, 1,21, 0,12,45.00,60.00,WinterDesignDay
7,-3.8
2,1, 1,21, 0,12, 0.00,60.00,WinterDesignDay
4438,133131.40085489647
2,1, 1,21, 0,13, 0.00,15.00,WinterDesignDay
7,-3.8
2,1, 1,21, 0,13,15.00,30.00,WinterDesignDay
7,-3.8
2,1, 1,21, 0,13,30.00,45.00,WinterDesignDay
7,-3.8
2,1, 1,21, 0,13,45.00,60.00,WinterDesignDay
7,-3.8
2,1, 1,21, 0,13, 0.00,60.00,WinterDesignDay
4438,131427.3882860133
2,1, 1,21, 0,14, 0.00,15.00,WinterDesignDay
7,-3.8
2,1, 1,21, 0,14,15.00,30.00,WinterDesignDay
7,-3.8
2,1, 1,21, 0,14,30.00,45.00,WinterDesignDay
7,-3.8
2,1, 1,21, 0,14,45.00,60.00,WinterDesignDay
7,-3.8
2,1, 1,21, 0,14, 0.00,60.00,WinterDesignDay
4438,130189.15324749155
2,1, 1,21, 0,15, 0.00,15.00,WinterDesignDay
7,-3.8
2,1, 1,21, 0,15,15.00,30.00,WinterDesignDay
7,-3.8
2,1, 1,21, 0,15,30.00,45.00,WinterDesignDay
7,-3.8
2,1, 1,21, 0,15,45.00,60.00,WinterDesignDay
7,-3.8
2,1, 1,21, 0,15, 0.00,60.00,WinterDesignDay
4438,129308.00523916955
2,1, 1,21, 0,16, 0.00,15.00,WinterDesignDay
7,-3.8
2,1, 1,21, 0,16,15.00,30.00,WinterDesignDay
7,-3.8
2,1, 1,21, 0,16,30.00,45.00,WinterDesignDay
7,-3.8
2,1, 1,21, 0,16,45.00,60.00,WinterDesignDay
7,-3.8
2,1, 1,21, 0,16, 0.00,60.00,WinterDesignDay
4438,128628.8776051616
2,1, 1,21, 0,17, 0.00,15.00,WinterDesignDay
7,-3.8
2,1, 1,21, 0,17,15.00,30.00,WinterDesignDay
7,-3.8
2,1, 1,21, 0,17,30.00,45.00,WinterDesignDay
7,-3.8
2,1, 1,21, 0,17,45.00,60.00,WinterDesignDay
7,-3.8
2,1, 1,21, 0,17, 0.00,60.00,WinterDesignDay
4438,128127.92773734189
2,1, 1,21, 0,18, 0.00,15.00,WinterDesignDay
7,-3.8
2,1, 1,21, 0,18,15.00,30.00,WinterDesignDay
7,-3.8
2,1, 1,21, 0,18,30.00,45.00,WinterDesignDay
7,-3.8
2,1, 1,21, 0,18,45.00,60.00,WinterDesignDay
7,-3.8
2,1, 1,21, 0,18, 0.00,60.00,WinterDesignDay
4438,127746.3962955217
2,1, 1,21, 0,19, 0.00,15.00,WinterDesignDay
7,-3.8
2,1, 1,21, 0,19,15.00,30.00,WinterDesignDay
7,-3.8
2,1, 1,21, 0,19,30.00,45.00,WinterDesignDay
7,-3.8
2,1, 1,21, 0,19,45.00,60.00,WinterDesignDay
7,-3.8
2,1, 1,21, 0,19, 0.00,60.00,WinterDesignDay
4438,127475.65336710045
2,1, 1,21, 0,20, 0.00,15.00,WinterDesignDay
7,-3.8
2,1, 1,21, 0,20,15.00,30.00,WinterDesignDay
7,-3.8
2,1, 1,21, 0,20,30.00,45.00,WinterDesignDay
7,-3.8
2,1, 1,21, 0,20,45.00,60.00,WinterDesignDay
7,-3.8
2,1, 1,21, 0,20, 0.00,60.00,WinterDesignDay
4438,127274.21333559367
2,1, 1,21, 0,21, 0.00,15.00,WinterDesignDay
7,-3.8
2,1, 1,21, 0,21,15.00,30.00,WinterDesignDay
7,-3.8
2,1, 1,21, 0,21,30.00,45.00,WinterDesignDay
7,-3.8
2,1, 1,21, 0,21,45.00,60.00,WinterDesignDay
7,-3.8
2,1, 1,21, 0,21, 0.00,60.00,WinterDesignDay
4438,127106.62125138841
2,1, 1,21, 0,22, 0.00,15.00,WinterDesignDay
7,-3.8
2,1, 1,21, 0,22,15.00,30.00,WinterDesignDay
7,-3.8
2,1, 1,21, 0,22,30.00,45.00,WinterDesignDay
7,-3.8
2,1, 1,21, 0,22,45.00,60.00,WinterDesignDay
7,-3.8
2,1, 1,21, 0,22, 0.00,60.00,WinterDesignDay
4438,76269.60247129662
2,1, 1,21, 0,23, 0.00,15.00,WinterDesignDay
7,-3.8
2,1, 1,21, 0,23,15.00,30.00,WinterDesignDay
7,-3.8
2,1, 1,21, 0,23,30.00,45.00,WinterDesignDay
7,-3.8
2,1, 1,21, 0,23,45.00,60.00,WinterDesignDay
7,-3.8
2,1, 1,21, 0,23, 0.00,60.00,WinterDesignDay
4438,89352.6395157451
2,1, 1,21, 0,24, 0.00,15.00,WinterDesignDay
7,-3.8
2,1, 1,21, 0,24,15.00,30.00,WinterDesignDay
7,-3.8
2,1, 1,21, 0,24,30.00,45.00,WinterDesignDay
7,-3.8
2,1, 1,21, 0,24,45.00,60.00,WinterDesignDay
7,-3.8
2,1, 1,21, 0,24, 0.00,60.00,WinterDesignDay
4438,96407.21389326298
1,PALMDALE-AIRPORT AUG CLG 0.4% CONDNS DB=>MCWB,  34.63,-118.08,  -8.00, 769.00
2,1, 8,21, 0, 1, 0.00,15.00,SummerDesignDay
7,28.308
2,1, 8,21, 0, 1,15.00,30.00,SummerDesignDay
7,28.08
2,1, 8,21, 0, 1,30.00,45.00,SummerDesignDay
7,27.852
2,1, 8,21, 0, 1,45.00,60.00,SummerDesignDay
7,27.624000000000004
2,1, 8,21, 0, 1, 0.00,60.00,SummerDesignDay
4438,0.0
2,1, 8,21, 0, 2, 0.00,15.00,SummerDesignDay
7,27.472
2,1, 8,21, 0, 2,15.00,30.00,SummerDesignDay
7,27.32
2,1, 8,21, 0, 2,30.00,45.00,SummerDesignDay
7,27.168
2,1, 8,21, 0, 2,45.00,60.00,SummerDesignDay
7,27.016
2,1, 8,21, 0, 2, 0.00,60.00,SummerDesignDay
4438,0.0
2,1, 8,21, 0, 3, 0.00,15.00,SummerDesignDay
7,26.902
2,1, 8,21, 0, 3,15.00,30.00,SummerDesignDay
7,26.788
2,1, 8,21, 0, 3,30.00,45.00,SummerDesignDay
7,26.674000000000004
2,1, 8,21, 0, 3,45.00,60.00,SummerDesignDay
7,26.560000000000004
2,1, 8,21, 0, 3, 0.00,60.00,SummerDesignDay
4438,0.0
2,1, 8,21, 0, 4, 0.00,15.00,SummerDesignDay
7,26.446
2,1, 8,21, 0, 4,15.00,30.00,SummerDesignDay
7,26.332
2,1, 8,21, 0, 4,30.00,45.00,SummerDesignDay
7,26.218000000000005
2,1, 8,21, 0, 4,45.00,60.00,SummerDesignDay
7,26.104
2,1, 8,21, 0, 4, 0.00,60.00,SummerDesignDay
4438,0.0
2,1, 8,21, 0, 5, 0.00,15.00,SummerDesignDay
7,26.028
2,1, 8,21, 0, 5,15.00,30.00,SummerDesignDay
7,25.951999999999999
2,1, 8,21, 0, 5,30.00,45.00,SummerDesignDay
7,25.876
2,1, 8,21, 0, 5,45.00,60.00,SummerDesignDay
7,25.8
2,1, 8,21, 0, 5, 0.00,60.00,SummerDesignDay
4438,0.0
2,1, 8,21, 0, 6, 0.00,15.00,SummerDesignDay
7,25.876
2,1, 8,21, 0, 6,15.00,30.00,SummerDesignDay
7,25.951999999999999
2,1, 8,21, 0, 6,30.00,45.00,SummerDesignDay
7,26.028
2,1, 8,21, 0, 6,45.00,60.00,SummerDesignDay
7,26.104
2,1, 8,21, 0, 6, 0.00,60.00,SummerDesignDay
4438,0.0
2,1, 8,21, 0, 7, 0.00,15.00,SummerDesignDay
7,26.37
2,1, 8,21, 0, 7,15.00,30.00,SummerDesignDay
7,26.636
2,1, 8,21, 0, 7,30.00,45.00,SummerDesignDay
7,26.902
2,1, 8,21, 0, 7,45.00,60.00,SummerDesignDay
7,27.168
2,1, 8,21, 0, 7, 0.00,60.00,SummerDesignDay
4438,0.0
2,1, 8,21, 0, 8, 0.00,15.00,SummerDesignDay
7,27.814
2,1, 8,21, 0, 8,15.00,30.00,SummerDesignDay
7,28.46
2,1, 8,21, 0, 8,30.00,45.00,SummerDesignDay
7,29.106
2,1, 8,21, 0, 8,45.00,60.00,SummerDesignDay
7,29.752000000000004
2,1, 8,21, 0, 8, 0.00,60.00,SummerDesignDay
4438,0.0
2,1, 8,21, 0, 9, 0.00,15.00,SummerDesignDay
7,30.474000000000005
2,1, 8,21, 0, 9,15.00,30.00,SummerDesignDay
7,31.195999999999999
2,1, 8,21, 0, 9,30.00,45.00,SummerDesignDay
7,31.918
2,1, 8,21, 0, 9,45.00,60.00,SummerDesignDay
7,32.64
2,1, 8,21, 0, 9, 0.00,60.00,SummerDesignDay
4438,0.0
2,1, 8,21, 0,10, 0.00,15.00,SummerDesignDay
7,33.286
2,1, 8,21, 0,10,15.00,30.00,SummerDesignDay
7,33.932
2,1, 8,21, 0,10,30.00,45.00,SummerDesignDay
7,34.578
2,1, 8,21, 0,10,45.00,60.00,SummerDesignDay
7,35.224000000000007
2,1, 8,21, 0,10, 0.00,60.00,SummerDesignDay
4438,0.0
2,1, 8,21, 0,11, 0.00,15.00,SummerDesignDay
7,35.794
2,1, 8,21, 0,11,15.00,30.00,SummerDesignDay
7,36.364
2,1, 8,21, 0,11,30.00,45.00,SummerDesignDay
7,36.934
2,1, 8,21, 0,11,45.00,60.00,SummerDesignDay
7,37.504
2,1, 8,21, 0,11, 0.00,60.00,SummerDesignDay
4438,0.0
2,1, 8,21, 0,12, 0.00,15.00,SummerDesignDay
7,37.884
2,1, 8,21, 0,12,15.00,30.00,SummerDesignDay
7,38.264
2,1, 8,21, 0,12,30.00,45.00,SummerDesignDay
7,38.644
2,1, 8,21, 0,12,45.00,60.00,SummerDesignDay
7,39.024
2,1, 8,21, 0,12, 0.00,60.00,SummerDesignDay
4438,0.0
2,1, 8,21, 0,13, 0.00,15.00,SummerDesignDay
7,39.328
2,1, 8,21, 0,13,15.00,30.00,SummerDesignDay
7,39.632
2,1, 8,21, 0,13,30.00,45.00,SummerDesignDay
7,39.936
2,1, 8,21, 0,13,45.00,60.00,SummerDesignDay
7,40.24
2,1, 8,21, 0,13, 0.00,60.00,SummerDesignDay
4438,0.0
2,1, 8,21, 0,14, 0.00,15.00,SummerDesignDay
7,40.43
2,1, 8,21, 0,14,15.00,30.00,SummerDesignDay
7,40.62
2,1, 8,21, 0,14,30.00,45.00,SummerDesignDay
7,40.81
2,1, 8,21, 0,14,45.00,60.00,SummerDesignDay
7,41.0
2,1, 8,21, 0,14, 0.00,60.00,SummerDesignDay
4438,0.0
2,1, 8,21, 0,15, 0.00,15.00,SummerDesignDay
7,41.0
2,1, 8,21, 0,15,15.00,30.00,SummerDesignDay
7,41.0
2,1, 8,21, 0,15,30.00,45.00,SummerDesignDay
7,41.0
2,1, 8,21, 0,15,45.00,60.00,SummerDesignDay
7,41.0
2,1, 8,21, 0,15, 0.00,60.00,SummerDesignDay
4438,0.0
2,1, 8,21, 0,16, 0.00,15.00,SummerDesignDay
7,40.772
2,1, 8,21, 0,16,15.00,30.00,SummerDesignDay
7,40.544
2,1, 8,21, 0,16,30.00,45.00,SummerDesignDay
7,40.316
2,1, 8,21, 0,16,45.00,60.00,SummerDesignDay
7,40.088
2,1, 8,21, 0,16, 0.00,60.00,SummerDesignDay
4438,0.0
2,1, 8,21, 0,17, 0.00,15.00,SummerDesignDay
7,39.784
2,1, 8,21, 0,17,15.00,30.00,SummerDesignDay
7,39.48
2,1, 8,21, 0,17,30.00,45.00,SummerDesignDay
7,39.176
2,1, 8,21, 0,17,45.00,60.00,SummerDesignDay
7,38.872
2,1, 8,21, 0,17, 0.00,60.00,SummerDesignDay
4438,0.0
2,1, 8,21, 0,18, 0.00,15.00,SummerDesignDay
7,38.492
2,1, 8,21, 0,18,15.00,30.00,SummerDesignDay
7,38.112
2,1, 8,21, 0,18,30.00,45.00,SummerDesignDay
7,37.732
2,1, 8,21, 0,18,45.00,60.00,SummerDesignDay
7,37.352000000000007
2,1, 8,21, 0,18, 0.00,60.00,SummerDesignDay
4438,0.0
2,1, 8,21, 0,19, 0.00,15.00,SummerDesignDay
7,36.782000000000007
2,1, 8,21, 0,19,15.00,30.00,SummerDesignDay
7,36.212
2,1, 8,21, 0,19,30.00,45.00,SummerDesignDay
7,35.642
2,1, 8,21, 0,19,45.00,60.00,SummerDesignDay
7,35.072
2,1, 8,21, 0,19, 0.00,60.00,SummerDesignDay
4438,0.0
2,1, 8,21, 0,20, 0.00,15.00,SummerDesignDay
7,34.654
2,1, 8,21, 0,20,15.00,30.00,SummerDesignDay
7,34.236000000000007
2,1, 8,21, 0,20,30.00,45.00,SummerDesignDay
7,33.818
2,1, 8,21, 0,20,45.00,60.00,SummerDesignDay
7,33.4
2,1, 8,21, 0,20, 0.00,60.00,SummerDesignDay
4438,0.0
2,1, 8,21, 0,21, 0.00,15.00,SummerDesignDay
7,33.058
2,1, 8,21, 0,21,15.00,30.00,SummerDesignDay
7,32.716
2,1, 8,21, 0,21,30.00,45.00,SummerDesignDay
7,32.374
2,1, 8,21, 0,21,45.00,60.00,SummerDesignDay
7,32.032
2,1, 8,21, 0,21, 0.00,60.00,SummerDesignDay
4438,0.0
2,1, 8,21, 0,22, 0.00,15.00,SummerDesignDay
7,31.689999999999999
2,1, 8,21, 0,22,15.00,30.00,SummerDesignDay
7,31.348
2,1, 8,21, 0,22,30.00,45.00,SummerDesignDay
7,31.006
2,1, 8,21, 0,22,45.00,60.00,SummerDesignDay
7,30.664
2,1, 8,21, 0,22, 0.00,60.00,SummerDesignDay
4438,0.0
2,1, 8,21, 0,23, 0.00,15.00,SummerDesignDay
7,30.398
2,1, 8,21, 0,23,15.00,30.00,SummerDesignDay
7,30.131999999999999
2,1, 8,21, 0,23,30.00,45.00,SummerDesignDay
7,29.866
2,1, 8,21, 0,23,45.00,60.00,SummerDesignDay
7,29.6
2,1, 8,21, 0,23, 0.00,60.00,SummerDesignDay
4438,0.0
2,1, 8,21, 0,24, 0.00,15.00,SummerDesignDay
7,29.334000000000004
2,1, 8,21, 0,24,15.00,30.00,SummerDesignDay
7,29.068
2,1, 8,21, 0,24,30.00,45.00,SummerDesignDay
7,28.802
2,1, 8,21, 0,24,45.00,60.00,SummerDesignDay
7,28.536
2,1, 8,21, 0,24, 0.00,60.00,SummerDesignDay
4438,0.0
1,PALMDALE-AIRPORT JUL CLG 0.4% CONDNS DB=>MCWB,  34.63,-118.08,  -8.00, 769.00
2,1, 7,21, 0, 1, 0.00,15.00,SummerDesignDay
7,28.473
2,1, 7,21, 0, 1,15.00,30.00,SummerDesignDay
7,28.23
2,1, 7,21, 0, 1,30.00,45.00,SummerDesignDay
7,27.987000000000003
2,1, 7,21, 0, 1,45.00,60.00,SummerDesignDay
7,27.744
2,1, 7,21, 0, 1, 0.00,60.00,SummerDesignDay
4438,0.0
2,1, 7,21, 0, 2, 0.00,15.00,SummerDesignDay
7,27.582
2,1, 7,21, 0, 2,15.00,30.00,SummerDesignDay
7,27.42
2,1, 7,21, 0, 2,30.00,45.00,SummerDesignDay
7,27.258000000000004
2,1, 7,21, 0, 2,45.00,60.00,SummerDesignDay
7,27.096
2,1, 7,21, 0, 2, 0.00,60.00,SummerDesignDay
4438,0.0
2,1, 7,21, 0, 3, 0.00,15.00,SummerDesignDay
7,26.9745
2,1, 7,21, 0, 3,15.00,30.00,SummerDesignDay
7,26.853
2,1, 7,21, 0, 3,30.00,45.00,SummerDesignDay
7,26.731500000000005
2,1, 7,21, 0, 3,45.00,60.00,SummerDesignDay
7,26.61
2,1, 7,21, 0, 3, 0.00,60.00,SummerDesignDay
4438,0.0
2,1, 7,21, 0, 4, 0.00,15.00,SummerDesignDay
7,26.488500000000003
2,1, 7,21, 0, 4,15.00,30.00,SummerDesignDay
7,26.367
2,1, 7,21, 0, 4,30.00,45.00,SummerDesignDay
7,26.2455
2,1, 7,21, 0, 4,45.00,60.00,SummerDesignDay
7,26.124000000000004
2,1, 7,21, 0, 4, 0.00,60.00,SummerDesignDay
4438,0.0
2,1, 7,21, 0, 5, 0.00,15.00,SummerDesignDay
7,26.043
2,1, 7,21, 0, 5,15.00,30.00,SummerDesignDay
7,25.962
2,1, 7,21, 0, 5,30.00,45.00,SummerDesignDay
7,25.881
2,1, 7,21, 0, 5,45.00,60.00,SummerDesignDay
7,25.8
2,1, 7,21, 0, 5, 0.00,60.00,SummerDesignDay
4438,0.0
2,1, 7,21, 0, 6, 0.00,15.00,SummerDesignDay
7,25.881
2,1, 7,21, 0, 6,15.00,30.00,SummerDesignDay
7,25.962
2,1, 7,21, 0, 6,30.00,45.00,SummerDesignDay
7,26.043
2,1, 7,21, 0, 6,45.00,60.00,SummerDesignDay
7,26.124000000000004
2,1, 7,21, 0, 6, 0.00,60.00,SummerDesignDay
4438,0.0
2,1, 7,21, 0, 7, 0.00,15.00,SummerDesignDay
7,26.4075
2,1, 7,21, 0, 7,15.00,30.00,SummerDesignDay
7,26.691
2,1, 7,21, 0, 7,30.00,45.00,SummerDesignDay
7,26.9745
2,1, 7,21, 0, 7,45.00,60.00,SummerDesignDay
7,27.258000000000004
2,1, 7,21, 0, 7, 0.00,60.00,SummerDesignDay
4438,0.0
2,1, 7,21, 0, 8, 0.00,15.00,SummerDesignDay
7,27.9465
2,1, 7,21, 0, 8,15.00,30.00,SummerDesignDay
7,28.635
2,1, 7,21, 0, 8,30.00,45.00,SummerDesignDay
7,29.323500000000004
2,1, 7,21, 0, 8,45.00,60.00,SummerDesignDay
7,30.012
2,1, 7,21, 0, 8, 0.00,60.00,SummerDesignDay
4438,0.0
2,1, 7,21, 0, 9, 0.00,15.00,SummerDesignDay
7,30.7815
2,1, 7,21, 0, 9,15.00,30.00,SummerDesignDay
7,31.551000000000003
2,1, 7,21, 0, 9,30.00,45.00,SummerDesignDay
7,32.320499999999999