Program Version,EnergyPlus, Version 9.0.1-bb7ca4f0da, YMD=2019.12.18 16:38
1,5,Environment Title[],Latitude[deg],Longitude[deg],Time Zone[],Elevation[m]
2,8,Day of Simulation[],Month[],Day of Month[],DST Indicator[1=yes 0=no],Hour[],StartMinute[],EndMinute[],DayType
3,5,Cumulative Day of Simulation[],Month[],Day of Month[],DST Indicator[1=yes 0=no],DayType  ! When Daily Meters Requested
4,2,Cumulative Days of Simulation[],Month[]  ! When Monthly Meters Requested
5,1,Cumulative Days of Simulation[] ! When Run Period Meters Requested
6,1,Calendar Year of Simulation[] ! When Annual Meters Requested
992,1,InteriorEquipment:Electricity [J] !Hourly
4230,1,Heating:Gas [J] !Hourly
70,1,ComplianceLtg:InteriorLights:Electricity [J] !Hourly
10,1,Electricity:Facility [J] !Hourly
46,1,InteriorLights:Electricity [J] !Hourly
4121,1,Fans:Electricity [J] !Hourly
4480,1,Pumps:Electricity [J] !Hourly
4243,1,Heating:Electricity [J] !Hourly
2227,1,WaterSystems:Electricity [J] !Hourly
4354,1,Cooling:Electricity [J] !Hourly
1496,1,Gas:Facility [J] !Hourly
1532,1,InteriorEquipment:Gas [J] !Hourly
2365,1,WaterSystems:Gas [J] !Hourly
1556,1,Receptacle:InteriorEquipment:Gas [J] !Hourly
1016,1,Receptacle:InteriorEquipment:Electricity [J] !Hourly
345,1,NonComplianceLtg:InteriorLights:Electricity [J] !Hourly
4133,1,General:Fans:Electricity [J] !Hourly
4170,1,ProcessMotors:Fans:Electricity [J] !Hourly
End of Data Dictionary
1,PALMDALE-AIRPORT ANN CLG 0.4% CONDNS DB=>MCWB,  34.63,-118.08,  -8.00, 769.00
2,1, 7,21, 0, 1, 0.00,60.00,SummerDesignDay
10,685146229.8788484
46,249737579.99999974
70,96701579.99999997
345,153035999.9999997
992,231449399.99999977
1016,231449399.99999977
1496,63985506.19901177
1532,57764642.17263899
1556,57764642.17263899
2227,17871434.320380749
2365,6220864.026372786
4121,242.20732927075489
4133,40.30180238324472
4170,146.49394504991597
4230,0.0
4243,0.0
4354,186087573.35113848
4480,0.0
2,1, 7,21, 0, 2, 0.00,60.00,SummerDesignDay
10,675758235.2937132
46,249737579.99999974
70,96701579.99999997
345,153035999.9999997
992,231449399.99999977
1016,231449399.99999977
1496,64062289.968829128
1532,57764642.17263899
1556,57764642.17263899
2227,18931446.94802106
2365,6297647.796190133
4121,239.94524143181759
4133,40.3166761771004
4170,146.49394504991597
4230,0.0
4243,0.0
4354,175639568.40045095
4480,0.0
2,1, 7,21, 0, 3, 0.00,60.00,SummerDesignDay
10,667550208.5825064
46,249737579.99999974
70,96701579.99999997
345,153035999.9999997
992,231449399.99999977
1016,231449399.99999977
1496,64202651.91726877
1532,57764642.17263899
1556,57764642.17263899
2227,17871774.977555459
2365,6438009.744629781
4121,238.46987519177237
4133,40.329174263030527
4170,146.49394504991597
4230,0.0
4243,0.0
4354,168491215.13507576
4480,0.0
2,1, 7,21, 0, 4, 0.00,60.00,SummerDesignDay
10,662258988.7130722
46,249737579.99999974
70,96701579.99999997
345,153035999.9999997
992,231449399.99999977
1016,231449399.99999977
1496,64202784.59541594
1532,57764642.17263899
1556,57764642.17263899
2227,18931741.80865229
2365,6438142.422776956
4121,237.27043853084425
4133,40.33875858408523
4170,146.49394504991597
4230,0.0
4243,0.0
4354,162140029.63398136
4480,0.0
2,1, 7,21, 0, 5, 0.00,60.00,SummerDesignDay
10,656478346.6598008
46,249737579.99999974
70,96701579.99999997
345,153035999.9999997
992,231449399.99999977
1016,231449399.99999977
1496,64157819.36168531
1532,57764642.17263899
1556,57764642.17263899
2227,18073976.9551735
2365,6393177.189046323
4121,236.34308184351179
4133,40.34606417478585
4170,146.49394504991597
4230,0.0
4243,0.0
4354,157217153.3615454
4480,0.0
2,1, 7,21, 0, 6, 0.00,60.00,SummerDesignDay
10,686647674.9795402
46,249737579.99999974
70,96701579.99999997
345,153035999.9999997
992,231449399.99999977
1016,231449399.99999977
1496,63985603.4054738
1532,57764642.17263899
1556,57764642.17263899
2227,18730510.693134056
2365,6220961.232834805
4121,250.4217753308156
4133,50.06013153259454
4170,146.49394504991597
4230,0.0
4243,0.0
4354,186729933.86463074
4480,0.0
2,1, 7,21, 0, 7, 0.00,60.00,SummerDesignDay
10,775340530.4293944
46,249737579.99999974
70,96701579.99999997
345,153035999.9999997
992,231449399.99999977
1016,231449399.99999977
1496,64108137.42507072
1532,57764642.17263899
1556,57764642.17263899
2227,18512537.735992109
2365,6343495.252431732
4121,306.42381030254577
4133,96.25137834191861
4170,146.49394504991597
4230,0.0
4243,0.0
4354,275640706.26959189
4480,0.0
2,1, 7,21, 0, 8, 0.00,60.00,SummerDesignDay
10,791537922.103069
46,249737579.99999974
70,96701579.99999997
345,153035999.9999997
992,231449399.99999977
1016,231449399.99999977
1496,64202576.25718294
1532,57764642.17263899
1556,57764642.17263899
2227,18291317.782693443
2365,6437934.084543944
4121,290.97055048008158
4133,70.36284645921852
4170,146.49394504991597
4230,0.0
4243,0.0
4354,292059333.3498249
4480,0.0
2,1, 7,21, 0, 9, 0.00,60.00,SummerDesignDay
10,835872569.3282266
46,249737579.99999974
70,96701579.99999997
345,153035999.9999997
992,231449399.99999977
1016,231449399.99999977
1496,64202845.073341358
1532,57764642.17263899
1556,57764642.17263899
2227,18931538.148079687
2365,6438202.900702359
4121,299.5673174918266
4133,66.52189865934214
4170,146.49394504991597
4230,0.0
4243,0.0
4354,335753751.61282929
4480,0.0
2,1, 7,21, 0,10, 0.00,60.00,SummerDesignDay
10,878689765.3435395
46,249737579.99999974
70,96701579.99999997
345,153035999.9999997
992,231449399.99999977
1016,231449399.99999977
1496,64111714.56524873
1532,57764642.17263899
1556,57764642.17263899
2227,17871973.16232779
2365,6347072.392609734
4121,307.70205575795537
4133,65.59539210547513
4170,146.49394504991597
4230,0.0
4243,0.0
4354,379630504.4791561
4480,0.0
2,1, 7,21, 0,11, 0.00,60.00,SummerDesignDay
10,918207234.3375737
46,249737579.99999974
70,96701579.99999997
345,153035999.9999997
992,231449399.99999977
1016,231449399.99999977
1496,63985431.14035324
1532,57764642.17263899
1556,57764642.17263899
2227,18931672.655988344
2365,6220788.967714251
4121,312.96878709477928
4133,65.04958765249835
4170,146.49394504991597
4230,0.0
4243,0.0
4354,418088268.7127979
4480,0.0
2,1, 7,21, 0,12, 0.00,60.00,SummerDesignDay
10,947995667.6134262
46,249737579.99999974
70,96701579.99999997
345,153035999.9999997
992,231449399.99999977
1016,231449399.99999977
1496,64153613.59632299
1532,57764642.17263899
1556,57764642.17263899
2227,17871379.593518
2365,6388971.4236839939
4121,316.752982900162
4133,64.75025578781106
4170,146.49394504991597
4230,0.0
4243,0.0
4354,448936991.2669253
4480,0.0
2,1, 7,21, 0,13, 0.00,60.00,SummerDesignDay
10,975980413.5442915
46,249737579.99999974
70,96701579.99999997
345,153035999.9999997
992,231449399.99999977
1016,231449399.99999977
1496,64202634.254430267
1532,57764642.17263899
1556,57764642.17263899
2227,18931735.847889127
2365,6437992.081791271
4121,321.12673929119139
4133,64.8486422016496
4170,146.49394504991597
4230,0.0
4243,0.0
4354,475861376.5696632
4480,0.0
2,1, 7,21, 0,14, 0.00,60.00,SummerDesignDay
10,1003059444.3896564
46,249737579.99999974
70,96701579.99999997
345,153035999.9999997
992,231449399.99999977
1016,231449399.99999977
1496,64202896.42289041
1532,57764642.17263899
1556,57764642.17263899
2227,18093358.171373216
2365,6438254.25025143
4121,328.56125802342725
4133,65.864358288511
4170,146.49394504991597
4230,0.0
4243,0.0
4354,503778777.6570252
4480,0.0
2,1, 7,21, 0,15, 0.00,60.00,SummerDesignDay
10,1024118539.6508584
46,249737579.99999974
70,96701579.99999997
345,153035999.9999997
992,231449399.99999977
1016,231449399.99999977
1496,64066277.81925087
1532,57764642.17263899
1556,57764642.17263899
2227,18710652.30295735
2365,6301635.646611875
4121,336.86355088221037
4133,67.56906499549595
4170,146.49394504991597
4230,0.0
4243,0.0
4354,524220570.4843502
4480,0.0
2,1, 7,21, 0,16, 0.00,60.00,SummerDesignDay
10,1022327614.0634052
46,249737579.99999974
70,96701579.99999997
345,153035999.9999997
992,231449399.99999977
1016,231449399.99999977
1496,63985368.38379335
1532,57764642.17263899
1556,57764642.17263899
2227,18532731.585396757
2365,6220726.211154356
4121,340.19217305768606
4133,68.67302887440153
4170,146.49394504991597
4230,0.0
4243,0.0
4354,522607562.28583517
4480,0.0
2,1, 7,21, 0,17, 0.00,60.00,SummerDesignDay
10,997426049.0242704
46,249737579.99999974
70,96701579.99999997
345,153035999.9999997
992,231449399.99999977
1016,231449399.99999977
1496,64199112.69788003
1532,57764642.17263899
1556,57764642.17263899
2227,18270654.267023855
2365,6434470.525241043
4121,335.3263334543457
4133,68.21655843308555
4170,146.49394504991597
4230,0.0
4243,0.0
4354,497968079.430913
4480,0.0
2,1, 7,21, 0,18, 0.00,60.00,SummerDesignDay
10,963642821.2540798
46,249737579.99999974
70,96701579.99999997
345,153035999.9999997
992,231449399.99999977
1016,231449399.99999977
1496,64202673.32405705
1532,57764642.17263899
1556,57764642.17263899
2227,18931345.783246
2365,6438031.151418063
4121,326.6579925241749
4133,66.56686839402322
4170,146.49394504991597
4230,0.0
4243,0.0
4354,463524168.8128413
4480,0.0
2,1, 7,21, 0,19, 0.00,60.00,SummerDesignDay
10,904926648.6953013
46,249737579.99999974
70,96701579.99999997
345,153035999.9999997
992,231449399.99999977
1016,231449399.99999977
1496,64202786.952884059
1532,57764642.17263899
1556,57764642.17263899
2227,17872242.30062735
2365,6438144.780245071
4121,308.663784336578
4133,63.35747636836619
4170,146.49394504991597
4230,0.0
4243,0.0
4354,405867117.73088946
4480,0.0
2,1, 7,21, 0,20, 0.00,60.00,SummerDesignDay
10,851569706.0772677
46,249737579.99999974
70,96701579.99999997
345,153035999.9999997
992,231449399.99999977
1016,231449399.99999977
1496,64021102.02888133
1532,57764642.17263899
1556,57764642.17263899
2227,18931429.353783046
2365,6256459.856242336
4121,290.8472645644807
4133,60.2020744771565
4170,146.49394504991597
4230,0.0
4243,0.0
4354,351451005.87622
4480,0.0
2,1, 7,21, 0,21, 0.00,60.00,SummerDesignDay
10,815223253.4047926
46,249737579.99999974
70,96701579.99999997
345,153035999.9999997
992,231449399.99999977
1016,231449399.99999977
1496,64026832.08684072
1532,57764642.17263899
1556,57764642.17263899
2227,17871772.878414647
2365,6262189.914201732
4121,279.9347160970033
4133,58.09711530685529
4170,146.49394504991597
4230,0.0
4243,0.0
4354,316164220.5916619
4480,0.0
2,1, 7,21, 0,22, 0.00,60.00,SummerDesignDay
10,756143597.2788986
46,249737579.99999974
70,96701579.99999997
345,153035999.9999997
992,231449399.99999977
1016,231449399.99999977
1496,64203577.19940497
1532,57764642.17263899
1556,57764642.17263899
2227,18932679.08419299
2365,6438935.026765982
4121,260.0086726421067
4133,44.83896619877949
4170,146.49394504991597
4230,0.0
4243,0.0
4354,256023678.1860331
4480,0.0
2,1, 7,21, 0,23, 0.00,60.00,SummerDesignDay
10,733688167.0280948
46,249737579.99999974
70,96701579.99999997
345,153035999.9999997
992,231449399.99999977
1016,231449399.99999977
1496,64202673.88682654
1532,57764642.17263899
1556,57764642.17263899
2227,18113233.6410116
2365,6438031.714187548
4121,254.43638975632718
4133,44.47685946560384
4170,146.49394504991597
4230,0.0
4243,0.0
4354,234387698.95069335
4480,0.0
2,1, 7,21, 0,24, 0.00,60.00,SummerDesignDay
10,715815814.8544779
46,249737579.99999974
70,96701579.99999997
345,153035999.9999997
992,231449399.99999977
1016,231449399.99999977
1496,64192531.691091258
1532,57764642.17263899
1556,57764642.17263899
2227,18690275.728624606
2365,6427889.518452264
4121,249.75254373228729
4133,44.194534006742888
4170,146.49394504991597
4230,0.0
4243,0.0
4354,215938309.37330959
4480,0.0
1,PALMDALE-AIRPORT ANN CLG 0.4% CONDNS DP=>MCDB,  34.63,-118.08,  -8.00, 769.00
2,1, 7,21, 0, 1, 0.00,60.00,SummerDesignDay
10,594418231.4893731
46,249737579.99999974
70,96701579.99999997
345,153035999.9999997
992,231449399.99999977
1016,231449399.99999977
1496,63985506.19901177
1532,57764642.17263899
1556,57764642.17263899
2227,17871434.320380749
2365,6220864.026372786
4121,221.35439793382325
4133,40.265343566503947
4170,146.49394504991597
4230,0.0
4243,0.0
4354,95359595.81459436
4480,0.0
2,1, 7,21, 0, 2, 0.00,60.00,SummerDesignDay
10,579524112.3081815
46,249737579.99999974
70,96701579.99999997
345,153035999.9999997
992,231449399.99999977
1016,231449399.99999977
1496,64062289.968829128
1532,57764642.17263899
1556,57764642.17263899
2227,18931446.94802106
2365,6297647.796190133
4121,218.29466680418049
4133,40.271160622604899
4170,146.49394504991597
4230,0.0
4243,0.0
4354,79405467.0654936
4480,0.0
2,1, 7,21, 0, 3, 0.00,60.00,SummerDesignDay
10,567094353.0189767
46,249737579.99999974
70,96701579.99999997
345,153035999.9999997
992,231449399.99999977
1016,231449399.99999977
1496,64202651.91726877
1532,57764642.17263899
1556,57764642.17263899
2227,17871774.977555459
2365,6438009.744629781
4121,215.9955900947545
4133,40.277742712658348
4170,146.49394504991597
4230,0.0
4243,0.0
4354,68035382.04583103
4480,0.0
2,1, 7,21, 0, 4, 0.00,60.00,SummerDesignDay
10,558282940.3821418
46,249737579.99999974
70,96701579.99999997
345,153035999.9999997
992,231449399.99999977
1016,231449399.99999977
1496,64202784.59541594
1532,57764642.17263899
1556,57764642.17263899
2227,18931741.80865229
2365,6438142.422776956
4121,213.99805838024617
4133,40.28232340199244
4170,146.49394504991597
4230,0.0
4243,0.0
4354,58164004.575431089
4480,0.0
2,1, 7,21, 0, 5, 0.00,60.00,SummerDesignDay
10,549730344.2079252
46,249737579.99999974
70,96701579.99999997
345,153035999.9999997
992,231449399.99999977
1016,231449399.99999977
1496,64157819.36168531
1532,57764642.17263899
1556,57764642.17263899
2227,18073976.9551735
2365,6393177.189046323
4121,212.4429319789766
4133,40.2857915999589
4170,146.49394504991597
4230,0.0
4243,0.0
4354,50469174.80981973
4480,0.0
2,1, 7,21, 0, 6, 0.00,60.00,SummerDesignDay
10,579917110.1329404
46,249737579.99999974
70,96701579.99999997
345,153035999.9999997
992,231449399.99999977
1016,231449399.99999977
1496,63985710.403743568
1532,57764642.17263899
1556,57764642.17263899
2227,18730550.5647891
2365,6221068.23110457
4121,221.87147341370483
4133,45.22061699642592
4170,146.49394504991597
4230,0.0
4243,0.0
4354,79999357.69667791
4480,0.0
2,1, 7,21, 0, 7, 0.00,60.00,SummerDesignDay
10,683431442.6197506
46,249737579.99999974
70,96701579.99999997
345,153035999.9999997
992,231449399.99999977
1016,231449399.99999977
1496,64107742.843391839
1532,57764642.17263899
1556,57764642.17263899
2227,18512103.381641725
2365,6343100.670752853
4121,259.03200787009396
4133,71.30659335450082
4170,146.49394504991597
4230,0.0
4243,0.0
4354,183732100.20610098
4480,0.0
2,1, 7,21, 0, 8, 0.00,60.00,SummerDesignDay
10,703707936.1513132
46,249737579.99999974
70,96701579.99999997
345,153035999.9999997
992,231449399.99999977
1016,231449399.99999977
1496,64202575.859753239
1532,57764642.17263899
1556,57764642.17263899
2227,18291972.92459541
2365,6437933.687114246
4121,257.50269764143027
4133,57.80047206756116
4170,146.49394504991597
4230,0.0
4243,0.0
4354,204228725.72402016
4480,0.0
2,1, 7,21, 0, 9, 0.00,60.00,SummerDesignDay
10,755291730.8806764
46,249737579.99999974
70,96701579.99999997
345,153035999.9999997
992,231449399.99999977
1016,231449399.99999977
1496,64202844.48260613
1532,57764642.17263899
1556,57764642.17263899
2227,18931538.726333608
2365,6438202.30996713
4121,270.17893672277958
4133,56.65074776981774
4170,146.49394504991597
4230,0.0
4243,0.0
4354,255172941.97540594
4480,0.0
2,1, 7,21, 0,10, 0.00,60.00,SummerDesignDay
10,796514946.5828192
46,249737579.99999974
70,96701579.99999997
345,153035999.9999997
992,231449399.99999977
1016,231449399.99999977
1496,64112129.223077509
1532,57764642.17263899
1556,57764642.17263899
2227,17871973.290515204
2365,6347487.05043851
4121,279.21239497205047
4133,56.77053842218079
4170,146.49394504991597
4230,0.0
4243,0.0
4354,297455714.0799091
4480,0.0
2,1, 7,21, 0,11, 0.00,60.00,SummerDesignDay
10,830199321.2939483
46,249737579.99999974
70,96701579.99999997
345,153035999.9999997
992,231449399.99999977
1016,231449399.99999977
1496,63985431.00824537
1532,57764642.17263899
1556,57764642.17263899
2227,18931671.634927349
2365,6220788.8356063789
4121,284.22220494362588
4133,56.867585833409339
4170,146.49394504991597
4230,0.0
4243,0.0
4354,330080385.43681606
4480,0.0
2,1, 7,21, 0,12, 0.00,60.00,SummerDesignDay
10,853096623.8435906
46,249737579.99999974
70,96701579.99999997
345,153035999.9999997
992,231449399.99999977
1016,231449399.99999977
1496,64153195.77211723
1532,57764642.17263899
1556,57764642.17263899
2227,17871677.49518252
2365,6388553.59947823
4121,288.0581209160604
4133,56.97129880612609
4170,146.49394504991597
4230,0.0
4243,0.0
4354,354037678.290287
4480,0.0
2,1, 7,21, 0,13, 0.00,60.00,SummerDesignDay
10,875574083.2961825
46,249737579.99999974
70,96701579.99999997
345,153035999.9999997
992,231449399.99999977
1016,231449399.99999977
1496,64202633.97256228
1532,57764642.17263899
1556,57764642.17263899
2227,18931736.171057814
2365,6437991.799923296
4121,292.4146221702356
4133,57.272003799317278
4170,146.49394504991597
4230,0.0
4243,0.0
4354,375455074.7105026
4480,0.0
2,1, 7,21, 0,14, 0.00,60.00,SummerDesignDay
10,898286852.1502112
46,249737579.99999974
70,96701579.99999997
345,153035999.9999997
992,231449399.99999977
1016,231449399.99999977
1496,64202897.411550339
1532,57764642.17263899
1556,57764642.17263899
2227,18092219.196169378
2365,6438255.238911343
4121,299.7390862394222
4133,58.23532229392157
4170,146.49394504991597
4230,0.0
4243,0.0
4354,399007353.2149557
4480,0.0
2,1, 7,21, 0,15, 0.00,60.00,SummerDesignDay
10,917129736.5831114
46,249737579.99999974
70,96701579.99999997
345,153035999.9999997
992,231449399.99999977
1016,231449399.99999977
1496,64066697.11467874
1532,57764642.17263899
1556,57764642.17263899
2227,18711791.601220438
2365,6302054.942039757
4121,307.9311631045481
4133,59.73806029861197
4170,146.49394504991597
4230,0.0
4243,0.0
4354,417230657.0507279
4480,0.0
2,1, 7,21, 0,16, 0.00,60.00,SummerDesignDay
10,916542612.1245278
46,249737579.99999974
70,96701579.99999997
345,153035999.9999997
992,231449399.99999977
1016,231449399.99999977
1496,63985367.73668461
1532,57764642.17263899
1556,57764642.17263899
2227,18531594.407682964
2365,6220725.564045626
4121,311.32464380785816
4133,60.75523054046247
4170,146.49394504991597
4230,0.0
4243,0.0
4354,416823726.39220097
4480,0.0
2,1, 7,21, 0,17, 0.00,60.00,SummerDesignDay
10,895643330.2007278
46,249737579.99999974
70,96701579.99999997
345,153035999.9999997
992,231449399.99999977
1016,231449399.99999977
1496,64198694.88367113
1532,57764642.17263899
1556,57764642.17263899
2227,18271793.086647218
2365,6434052.711032145
4121,306.7448977444646
4133,60.4690943661541
4170,146.49394504991597
4230,0.0
4243,0.0
4354,396184250.36918297
4480,0.0
2,1, 7,21, 0,18, 0.00,60.00,SummerDesignDay
10,866712391.7155674
46,249737579.99999974
70,96701579.99999997
345,153035999.9999997
992,231449399.99999977
1016,231449399.99999977
1496,64202672.886323098
1532,57764642.17263899
1556,57764642.17263899
2227,18931346.09775792
2365,6438030.713684105
4121,298.4582048274605
4133,59.17277186288776
4170,146.49394504991597
4230,0.0
4243,0.0
4354,366593767.15960469
4480,0.0
2,1, 7,21, 0,19, 0.00,60.00,SummerDesignDay
10,813225457.4925674
46,249737579.99999974
70,96701579.99999997
345,153035999.9999997
992,231449399.99999977
1016,231449399.99999977
1496,64202786.68051923
1532,57764642.17263899
1556,57764642.17263899
2227,17872242.44657438
2365,6438144.507880239
4121,280.72180064742039
4133,56.59889847868587
4170,146.49394504991597
4230,0.0
4243,0.0
4354,314165954.32419249
4480,0.0
2,1, 7,21, 0,20, 0.00,60.00,SummerDesignDay
10,764177749.1162807
46,249737579.99999974
70,96701579.99999997
345,153035999.9999997
992,231449399.99999977
1016,231449399.99999977
1496,64021521.00919669
1532,57764642.17263899
1556,57764642.17263899
2227,18931428.48442208
2365,6256878.8365576979
4121,264.0252157736568
4133,54.02739849381163
4170,146.49394504991597
4230,0.0
4243,0.0
4354,264059076.60664303
4480,0.0
2,1, 7,21, 0,21, 0.00,60.00,SummerDesignDay
10,730020908.6721339
46,249737579.99999974
70,96701579.99999997
345,153035999.9999997
992,231449399.99999977
1016,231449399.99999977
1496,64026413.609963167
1532,57764642.17263899
1556,57764642.17263899
2227,17871772.88062229
2365,6261771.437324177
4121,253.8290532987346
4133,52.28939296406854
4170,146.49394504991597
4230,0.0
4243,0.0
4354,230961901.9624584
4480,0.0
2,1, 7,21, 0,22, 0.00,60.00,SummerDesignDay
10,669846627.4368999
46,249737579.99999974
70,96701579.99999997
345,153035999.9999997
992,231449399.99999977
1016,231449399.99999977
1496,64202955.086767259
1532,57764642.17263899
1556,57764642.17263899
2227,18932820.742576913
2365,6438312.914128261
4121,238.44761196005937
4133,43.43222291202978
4170,146.49394504991597
4230,0.0
4243,0.0
4354,169726588.24671114
4480,0.0
2,1, 7,21, 0,23, 0.00,60.00,SummerDesignDay
10,651131217.8655295
46,249737579.99999974
70,96701579.99999997
345,153035999.9999997
992,231449399.99999977
1016,231449399.99999977
1496,64202821.30979383
1532,57764642.17263899
1556,57764642.17263899
2227,18111197.714866453
2365,6438179.137154834
4121,232.84337944842634
4133,43.1199142842118
4170,146.49394504991597
4230,0.0
4243,0.0
4354,151832807.30728365
4480,0.0
2,1, 7,21, 0,24, 0.00,60.00,SummerDesignDay
10,631226074.3392592
46,249737579.99999974
70,96701579.99999997
345,153035999.9999997
992,231449399.99999977
1016,231449399.99999977
1496,64193367.47032606
1532,57764642.17263899
1556,57764642.17263899
2227,18692583.134249238
2365,6428725.297687072
4121,228.12833795742803
4133,42.86416600387564
4170,146.49394504991597
4230,0.0
4243,0.0
4354,131346283.07667198
4480,0.0
1,PALMDALE-AIRPORT ANN HTG 99.6% CONDNS DB,  34.63,-118.08,  -8.00, 769.00
2,1, 1,21, 0, 1, 0.00,60.00,WinterDesignDay
10,72238.04636376104
46,0.0
70,0.0
345,0.0
992,0.0
1016,0.0
1496,691297992.2509663
1532,0.0
1556,0.0
2227,72000.0
2365,579679.2082582207
4121,238.046363760967
4133,40.19118501936639
4170,146.49394504991597
4230,690718313.0427082
4243,0.0
4354,0.0
4480,0.0
2,1, 1,21, 0, 2, 0.00,60.00,WinterDesignDay
10,72249.82415559469
46,0.0
70,0.0
345,0.0
992,0.0
1016,0.0
1496,772120284.4634408
1532,0.0
1556,0.0
2227,72000.0
2365,833484.0608385904
4121,249.82415559464534
4133,40.191185019366397
4170,146.49394504991597
4230,771286800.4026022
4243,0.0
4354,0.0
4480,0.0
2,1, 1,21, 0, 3, 0.00,60.00,WinterDesignDay
10,72259.18005211833
46,0.0
70,0.0
345,0.0
992,0.0
1016,0.0
1496,848189292.8307226
1532,0.0
1556,0.0
2227,72000.0
2365,833372.2616727904
4121,259.1800521182579
4133,40.191185019366397
4170,146.49394504991597
4230,847355920.5690498
4243,0.0
4354,0.0
4480,0.0
2,1, 1,21, 0, 4, 0.00,60.00,WinterDesignDay
10,72266.0239527299
46,0.0
70,0.0
345,0.0
992,0.0
1016,0.0
1496,908595542.6510892
1532,0.0
1556,0.0
2227,72000.0
2365,833413.0303138482
4121,266.0239527298442
4133,40.191185019366397
4170,146.49394504991597
4230,907762129.6207752
4243,0.0
4354,0.0
4480,0.0
2,1, 1,21, 0, 5, 0.00,60.00,WinterDesignDay
10,72271.25924634113
46,0.0
70,0.0
345,0.0
992,0.0
1016,0.0
1496,950898037.9559436
1532,0.0
1556,0.0
2227,72000.0
2365,833295.4388417748
4121,271.25924634106766
4133,40.191185019366397
4170,146.49394504991597
4230,950064742.5171018
4243,0.0
4354,0.0
4480,0.0
2,1, 1,21, 0, 6, 0.00,60.00,WinterDesignDay
10,4777669.283515392
46,0.0
70,0.0
345,0.0
992,0.0
1016,0.0
1496,1147028525.5436655
1532,0.0
1556,0.0
2227,72000.0
2365,670157.9087892606
4121,300.38691708127808
4133,66.14290933447158
4170,146.49394504991597
4230,1146358367.634876
4243,0.0
4354,4705368.89659831
4480,0.0
2,1, 1,21, 0, 7, 0.00,60.00,WinterDesignDay
10,4512822.687548638
46,0.0
70,0.0
345,0.0
992,0.0
1016,0.0
1496,1794573280.969521
1532,0.0
1556,0.0
2227,72000.0
2365,742958.2678800989
4121,442.80435026224088
4133,131.82526194179989
4170,146.49394504991597
4230,1793830322.7016409
4243,0.0
4354,4440379.883198376
4480,0.0
2,1, 1,21, 0, 8, 0.00,60.00,WinterDesignDay
10,72377.55709409347
46,0.0
70,0.0
345,0.0
992,0.0
1016,0.0
1496,1670931155.994695
1532,0.0
1556,0.0
2227,72000.0
2365,833535.8445915382
4121,377.55709409340269
4133,70.83196523838778
4170,146.49394504991597
4230,1670097620.150103
4243,0.0
4354,0.0
4480,0.0
2,1, 1,21, 0, 9, 0.00,60.00,WinterDesignDay
10,72343.03701838237
46,0.0
70,0.0
345,0.0
992,0.0
1016,0.0
1496,1573917031.7410708
1532,0.0
1556,0.0
2227,72000.0
2365,833492.5280731679
4121,343.03701838231339
4133,43.29730254886763
4170,146.49394504991597
4230,1573083539.2129977
4243,0.0
4354,0.0
4480,0.0
2,1, 1,21, 0,10, 0.00,60.00,WinterDesignDay
10,72331.33607342956
46,0.0
70,0.0
345,0.0
992,0.0
1016,0.0
1496,1486560373.4247156
1532,0.0
1556,0.0
2227,72000.0
2365,833504.8637446042
4121,331.3360734295037
4133,41.8525608738006
4170,146.49394504991597
4230,1485726868.5609709
4243,0.0
4354,0.0
4480,0.0
2,1, 1,21, 0,11, 0.00,60.00,WinterDesignDay
10,72323.72186896758
46,0.0
70,0.0
345,0.0
992,0.0
1016,0.0
1496,1429436758.6310344
1532,0.0
1556,0.0
2227,72000.0
2365,833504.5297230168
4121,323.72186896754479
4133,41.49798855936828
4170,146.49394504991597
4230,1428603254.1013115
4243,0.0
4354,0.0
4480,0.0
2,1, 1,21, 0,12, 0.00,60.00,WinterDesignDay
10,72318.76819411075
46,0.0
70,0.0
345,0.0
992,0.0
1016,0.0
1496,1391448913.9032288
1532,0.0
1556,0.0
2227,72000.0
2365,579644.415875623
4121,318.7681941106667
4133,41.36234318968269
4170,146.49394504991597
4230,1390869269.4873534
4243,0.0
4354,0.0
4480,0.0
2,1, 1,21, 0,13, 0.00,60.00,WinterDesignDay
10,72315.38471419143
46,0.0
70,0.0
345,0.0
992,0.0
1016,0.0
1496,1365881177.6158405
1532,0.0
1556,0.0
2227,72000.0
2365,833504.332733964
4121,315.3847141913512
4133,41.29780110187516
4170,146.49394504991597
4230,1365047673.2831064
4243,0.0
4354,0.0
4480,0.0
2,1, 1,21, 0,14, 0.00,60.00,WinterDesignDay
10,72313.00031393139
46,0.0
70,0.0
345,0.0
992,0.0
1016,0.0
1496,1347539241.483
1532,0.0
1556,0.0
2227,72000.0
2365,833504.8896278406
4121,313.0003139313412
4133,41.25541067999984
4170,146.49394504991597
4230,1346705736.593372
4243,0.0
4354,0.0
4480,0.0
2,1, 1,21, 0,15, 0.00,60.00,WinterDesignDay
10,72311.32325257176
46,0.0
70,0.0
345,0.0
992,0.0
1016,0.0
1496,1334614573.7405668
1532,0.0
1556,0.0
2227,72000.0
2365,833505.7422471478
4121,311.32325257168608
4133,41.22545782527121
4170,146.49394504991597
4230,1333781067.9983195
4243,0.0
4354,0.0
4480,0.0
2,1, 1,21, 0,16, 0.00,60.00,WinterDesignDay
10,72310.11733805787
46,0.0
70,0.0
345,0.0
992,0.0
1016,0.0
1496,1325146445.5229266
1532,0.0
1556,0.0
2227,72000.0
2365,833506.8900196476
4121,310.1173380578082
4133,41.2045085528648
4170,146.49394504991597
4230,1324312938.632907
4243,0.0
4354,0.0
4480,0.0
2,1, 1,21, 0,17, 0.00,60.00,WinterDesignDay
10,72309.24316094058
46,0.0
70,0.0
345,0.0
992,0.0
1016,0.0
1496,1318254793.8631805
1532,0.0
1556,0.0
2227,72000.0
2365,833508.3323741371
4121,309.2431609404872
4133,41.18926076231343
4170,146.49394504991597
4230,1317421285.530806
4243,0.0
4354,0.0
4480,0.0
2,1, 1,21, 0,18, 0.00,60.00,WinterDesignDay
10,72308.61079900793
46,0.0
70,0.0
345,0.0
992,0.0
1016,0.0
1496,1312938709.6102265
1532,0.0
1556,0.0
2227,72000.0
2365,579660.5427041135
4121,308.61079900786879
4133,41.179253696261088
4170,146.49394504991597
4230,1312359049.0675224
4243,0.0
4354,0.0
4480,0.0
2,1, 1,21, 0,19, 0.00,60.00,WinterDesignDay
10,72308.1661787206
46,0.0
70,0.0
345,0.0
992,0.0
1016,0.0
1496,1309633234.7360078
1532,0.0
1556,0.0
2227,72000.0
2365,833511.6775401279
4121,308.16617872053799
4133,41.17116995490668
4170,146.49394504991597
4230,1308799723.0584675
4243,0.0
4354,0.0
4480,0.0
2,1, 1,21, 0,20, 0.00,60.00,WinterDesignDay
10,72307.83974566138
46,0.0
70,0.0
345,0.0
992,0.0
1016,0.0
1496,1307010603.9661084
1532,0.0
1556,0.0
2227,72000.0
2365,833514.0005180085
4121,307.83974566130106
4133,41.165181036267728
4170,146.49394504991597
4230,1306177089.9655903
4243,0.0
4354,0.0
4480,0.0
2,1, 1,21, 0,21, 0.00,60.00,WinterDesignDay
10,72307.59633812669
46,0.0
70,0.0
345,0.0
992,0.0
1016,0.0
1496,1304988973.3042634
1532,0.0
1556,0.0
2227,72000.0
2365,833516.6158033516
4121,307.59633812661476
4133,41.160550418496509
4170,146.49394504991597
4230,1304155456.68846
4243,0.0
4354,0.0
4480,0.0
2,1, 1,21, 0,22, 0.00,60.00,WinterDesignDay
10,846462.9776395921
46,0.0
70,0.0
345,0.0
992,0.0
1016,0.0
1496,1099095139.8009639
1532,0.0
1556,0.0
2227,846156.456339329
2365,833535.1963188446
4121,306.52130026295188
4133,40.267948916462227
4170,146.49394504991597
4230,1098261604.6046448
4243,0.0
4354,0.0
4480,0.0
2,1, 1,21, 0,23, 0.00,60.00,WinterDesignDay
10,72189.05513452963
46,0.0
70,0.0
345,0.0
992,0.0
1016,0.0
1496,476030549.9135106
1532,0.0
1556,0.0
2227,72000.0
2365,774337.6670196998
4121,189.05513452957008
4133,40.28767119277621
4170,146.49394504991597
4230,475256212.2464909
4243,0.0
4354,0.0
4480,0.0
2,1, 1,21, 0,24, 0.00,60.00,WinterDesignDay
10,72219.42200828427
46,0.0
70,0.0
345,0.0
992,0.0
1016,0.0
1496,674872832.8465875
1532,0.0
1556,0.0
2227,72000.0
2365,638664.4675856355
4121,219.42200828420617
4133,40.46484250828319
4170,146.49394504991597
4230,674234168.3790019
4243,0.0
4354,0.0
4480,0.0
1,PALMDALE-AIRPORT AUG CLG 0.4% CONDNS DB=>MCWB,  34.63,-118.08,  -8.00, 769.00
2,1, 8,21, 0, 1, 0.00,60.00,SummerDesignDay
10,736887065.6494323
46,249737579.99999974
70,96701579.99999997
345,153035999.9999997
992,231449399.99999977
1016,231449399.99999977
1496,63717978.266310449
1532,57764642.17263899
1556,57764642.17263899
2227,17572710.5185486
2365,5953336.093671457
4121,251.88096892059307
4133,40.31305209603661
4170,146.49394504991597
4230,0.0
4243,0.0
4354,238127123.24991475
4480,0.0
2,1, 8,21, 0, 2, 0.00,60.00,SummerDesignDay
10,726072362.5002877
46,249737579.99999974
70,96701579.99999997
345,153035999.9999997
992,231449399.99999977
1016,231449399.99999977
1496,64088216.3825374
1532,57764642.17263899
1556,57764642.17263899
2227,17573512.06463709
2365,6323574.209898412
4121,249.82281836453138
4133,40.330721758811609
4170,146.49394504991597
4230,0.0
4243,0.0
4354,227311620.61283208
4480,0.0
2,1, 8,21, 0, 3, 0.00,60.00,SummerDesignDay
10,718807778.4805994
46,249737579.99999974
70,96701579.99999997
345,153035999.9999997
992,231449399.99999977
1016,231449399.99999977
1496,63718281.67904742
1532,57764642.17263899
1556,57764642.17263899
2227,17573025.8989083