Program Version,EnergyPlus, Version 9.0.1-bb7ca4f0da, YMD=2019.12.17 17:31
1,5,Environment Title[],Latitude[deg],Longitude[deg],Time Zone[],Elevation[m]
2,8,Day of Simulation[],Month[],Day of Month[],DST Indicator[1=yes 0=no],Hour[],StartMinute[],EndMinute[],DayType
3,5,Cumulative Day of Simulation[],Month[],Day of Month[],DST Indicator[1=yes 0=no],DayType  ! When Daily Meters Requested
4,2,Cumulative Days of Simulation[],Month[]  ! When Monthly Meters Requested
5,1,Cumulative Days of Simulation[] ! When Run Period Meters Requested
6,1,Calendar Year of Simulation[] ! When Annual Meters Requested
4134,1,General:Fans:Electricity [J] !Hourly
11,1,Electricity:Facility [J] !Hourly
4171,1,ProcessMotors:Fans:Electricity [J] !Hourly
47,1,InteriorLights:Electricity [J] !Hourly
993,1,InteriorEquipment:Electricity [J] !Hourly
4244,1,Heating:Electricity [J] !Hourly
4355,1,Cooling:Electricity [J] !Hourly
4122,1,Fans:Electricity [J] !Hourly
4480,1,Pumps:Electricity [J] !Hourly
2228,1,WaterSystems:Electricity [J] !Hourly
1497,1,Gas:Facility [J] !Hourly
1533,1,InteriorEquipment:Gas [J] !Hourly
4231,1,Heating:Gas [J] !Hourly
2366,1,WaterSystems:Gas [J] !Hourly
1017,1,Receptacle:InteriorEquipment:Electricity [J] !Hourly
1557,1,Receptacle:InteriorEquipment:Gas [J] !Hourly
71,1,ComplianceLtg:InteriorLights:Electricity [J] !Hourly
346,1,NonComplianceLtg:InteriorLights:Electricity [J] !Hourly
End of Data Dictionary
1,SAN-DIEGO-LINDBERGH_722900_CZ2010,  32.73,-117.17,  -8.00,   4.00
2,1, 1, 1, 0, 1, 0.00,60.00,Holiday
11,55707209.442755039
47,24156278.99999996
71,4835078.999999999
346,19321199.999999968
993,18722069.99999997
1017,18722069.99999997
1497,1039286.286026072
1533,0.0
1557,0.0
2228,795723.4791393539
2366,1039286.286026072
4122,12033136.96361573
4134,8488078.333418433
4171,3545058.6301972989
4231,0.0
4244,0.0
4355,0.0
4480,0.0
2,1, 1, 1, 0, 2, 0.00,60.00,Holiday
11,56502659.35630933
47,24156278.99999996
71,4835078.999999999
346,19321199.999999968
993,18722069.99999997
1017,18722069.99999997
1497,1039053.1940109691
1533,0.0
1557,0.0
2228,1591173.3926936489
2366,1039053.1940109691
4122,12033136.96361573
4134,8488078.333418433
4171,3545058.6301972989
4231,0.0
4244,0.0
4355,0.0
4480,0.0
2,1, 1, 1, 0, 3, 0.00,60.00,Holiday
11,56502878.03067897
47,24156278.99999996
71,4835078.999999999
346,19321199.999999968
993,18722069.99999997
1017,18722069.99999997
1497,1039331.1982424941
1533,0.0
1557,0.0
2228,1591392.0670632763
2366,1039331.1982424941
4122,12033136.96361573
4134,8488078.333418433
4171,3545058.6301972989
4231,0.0
4244,0.0
4355,0.0
4480,0.0
2,1, 1, 1, 0, 4, 0.00,60.00,Holiday
11,55701218.559159617
47,24156278.99999996
71,4835078.999999999
346,19321199.999999968
993,18722069.99999997
1017,18722069.99999997
1497,1293002.369546547
1533,0.0
1557,0.0
2228,789732.5955439232
2366,1293002.369546547
4122,12033136.96361573
4134,8488078.333418433
4171,3545058.6301972989
4231,0.0
4244,0.0
4355,0.0
4480,0.0
2,1, 1, 1, 0, 5, 0.00,60.00,Holiday
11,56490715.3885902
47,24156278.99999996
71,4835078.999999999
346,19321199.999999968
993,18722069.99999997
1017,18722069.99999997
1497,1034037.1736646679
1533,0.0
1557,0.0
2228,1579229.4249745103
2366,1034037.1736646679
4122,12033136.96361573
4134,8488078.333418433
4171,3545058.6301972989
4231,0.0
4244,0.0
4355,0.0
4480,0.0
2,1, 1, 1, 0, 6, 0.00,60.00,Holiday
11,114800876.1267555
47,52754678.99999992
71,4835078.999999999
346,47919599.99999992
993,47320469.999999929
1017,47320469.999999929
1497,58596354.513337168
1533,0.0
1557,0.0
2228,789607.8582502536
2366,1040723.7247480076
4122,13900761.730139897
4134,10355703.099942597
4171,3545058.6301972989
4231,57555630.78858915
4244,10304.726970498336
4355,0.0
4480,25052.811394889537
2,1, 1, 1, 0, 7, 0.00,60.00,Holiday
11,166964077.89183394
47,74193748.79176516
71,4825348.791765277
346,69368399.9999999
993,68769269.9999999
1017,68769269.9999999
1497,277899518.33782407
1533,28597212.921243654
1557,28597212.921243654
2228,1591166.8472565723
2366,1039288.6899879866
4122,22376500.080093665
4134,10355703.099942597
4171,3545058.6301972989
4231,248263016.72659237
4244,8420.446520890911
4355,0.0
4480,24971.72619768948
2,1, 1, 1, 0, 8, 0.00,60.00,Holiday
11,161994666.80369599
47,73951398.6956239
71,4582998.695624028
346,69368399.9999999
993,68769269.9999999
1017,68769269.9999999
1497,160587616.25780935
1533,28597212.921243654
1557,28597212.921243654
2228,1628584.80074336
2366,1317092.2430465024
4122,17612755.360571393
4134,10355703.099942597
4171,3545058.6301972989
4231,130673311.09351921
4244,7358.904368391626
4355,0.0
4480,25299.042388907914
2,1, 1, 1, 0, 9, 0.00,60.00,Holiday
11,179224079.9420358
47,77197103.23652895
71,7828703.236529075
346,69368399.9999999
993,72641339.99999988
1017,72641339.99999988
1497,385384017.99667999
1533,0.0
1557,0.0
2228,2482010.677081512
2366,1329505.4347611159
4122,26042265.632891276
4134,21311191.774605015
4171,3545058.6301972989
4231,384054512.56191888
4244,78790.29095006759
4355,0.0
4480,782570.1045840484
2,1, 1, 1, 0,10, 0.00,60.00,Holiday
11,172685067.14415819
47,77200419.52074296
71,7832019.520743076
346,69368399.9999999
993,72641339.99999988
1017,72641339.99999988
1497,242358048.3287943
1533,0.0
1557,0.0
2228,2522005.975238237
2366,1341952.2688569539
4122,20161547.808414569
4134,16380319.452618652
4171,3545058.6301972989
4231,241016096.0599374
4244,48825.84067409385
4355,0.0
4480,110927.99908835103
2,1, 1, 1, 0,11, 0.00,60.00,Holiday
11,176012183.33015863
47,75873593.503455
71,27953993.50345505
346,47919599.99999992
993,74424959.99999996
1017,74424959.99999996
1497,127789679.08586385
1533,0.0
1557,0.0
2228,5739155.595421495
2366,2021693.2716042498
4122,19924281.598878314
4134,16374294.36371469
4171,3545058.6301972989
4231,125767985.81425959
4244,22833.04306914143
4355,0.0
4480,27359.589334700362
2,1, 1, 1, 0,12, 0.00,60.00,Holiday
11,176302218.27344606
47,75813020.98436561
71,27893420.984365647
346,47919599.99999992
993,74424959.99999996
1017,74424959.99999996
1497,80305420.46137059
1533,11438885.168497468
1557,11438885.168497468
2228,5846846.353299078
2366,2051523.665705694
4122,19959653.785854903
4134,16374294.36371469
4171,3545058.6301972989
4231,66815011.62716743
4244,11962.52118020631
4355,220159.09067991936
4480,25615.538066368128
2,1, 1, 1, 0,13, 0.00,60.00,Holiday
11,204520044.48763208
47,86044682.39859878
71,38125082.398598808
346,47919599.99999992
993,89913239.99999997
1017,89913239.99999997
1497,25069090.883270615
1533,11438885.168497468
1557,11438885.168497468
2228,6133218.925145302
2366,2406485.9493622735
4122,20018720.81537979
4134,16374294.36371469
4171,3545058.6301972989
4231,11223719.765410874
4244,2009.4883192362586
4355,2377747.65633987
4480,30425.203849082798
2,1, 1, 1, 0,14, 0.00,60.00,Holiday
11,208824594.93561856
47,85698193.93229915
71,37778593.93229918
346,47919599.99999992
993,89913239.99999997
1017,89913239.99999997
1497,10147486.284325423
1533,0.0
1557,0.0
2228,7157295.116615128
2366,2120201.024007378
4122,20449235.637558506
4134,16374294.36371469
4171,3545058.6301972989
4231,8027285.260318044
4244,1437.2005273597447
4355,5574359.966636349
4480,30833.081982071133
2,1, 1, 1, 0,15, 0.00,60.00,Holiday
11,209684100.53404013
47,85939377.95414353
71,38019777.954143557
346,47919599.99999992
993,89913239.99999997
1017,89913239.99999997
1497,9154433.720608361
1533,0.0
1557,0.0
2228,6015037.577553125
2366,2381725.1588664518
4122,20630237.2666088
4134,16376819.443811601
4171,3545058.6301972989
4231,6772708.561741908
4244,1212.5818381846912
4355,7153997.859229934
4480,30997.29466656622
2,1, 1, 1, 0,16, 0.00,60.00,Holiday
11,212537409.90468735
47,86209858.1036853
71,38290258.10368533
346,47919599.99999992
993,89913239.99999997
1017,89913239.99999997
1497,8044723.480862794
1533,0.0
1557,0.0
2228,6973973.333345462
2366,2085052.3967877678
4122,20518081.02060388
4134,16406125.973738146
4171,3545058.6301972989
4231,5959671.084075028
4244,1067.0160766884088
4355,8890086.453150209
4480,31103.97782579786
2,1, 1, 1, 0,17, 0.00,60.00,Holiday
11,212304745.0744223
47,89244305.65458578
71,41324705.65458581
346,47919599.99999992
993,89913239.99999997
1017,89913239.99999997
1497,36596771.2529393
1533,28597212.921243654
1557,28597212.921243654
2228,6309046.471041864
2366,2408333.8474911015
4122,20158455.760665746
4134,16417061.1488536
4171,3545058.6301972989
4231,5591224.484204545
4244,1001.0496097614839
4355,6647545.494128938
4480,31150.644390230394
2,1, 1, 1, 0,18, 0.00,60.00,Holiday
11,183078925.49631465
47,78647111.99999994
71,30727511.99999999
346,47919599.99999992
993,74424959.99999996
1017,74424959.99999996
1497,43726310.50139628
1533,28597212.921243654
1557,28597212.921243654
2228,6765464.966224716
2366,2074324.2779054214
4122,19921291.77182141
4134,16374294.36371469
4171,3545058.6301972989
4231,13054773.302247208
4244,2337.319089344065
4355,3287596.489062646
4480,30162.950116589782
2,1, 1, 1, 0,19, 0.00,60.00,Holiday
11,231989779.81340767
47,106749035.99999982
71,15931835.999999995
346,90817199.99999984
993,101834279.99999984
1017,101834279.99999984
1497,89135427.56495615
1533,28597212.921243654
1557,28597212.921243654
2228,4845301.1923825279
2366,1879297.0167005193
4122,18051728.22738782
4134,14506669.597190522
4171,3545058.6301972989
4231,58658917.62701196
4244,10502.258810290896
4355,473018.5085716318
4480,25913.626255545474
2,1, 1, 1, 0,20, 0.00,60.00,Holiday
11,260435316.844159
47,124250678.9999998
71,4835078.999999999
346,119415599.9999998
993,118816469.99999982
1017,118816469.99999982
1497,1818555.8533018912
1533,0.0
1557,0.0
2228,4696085.769715512
2366,1818555.8533018912
4122,12140530.638414856
4134,8488078.333418433
4171,3545058.6301972989
4231,0.0
4244,0.0
4355,531551.4360288911
4480,0.0
2,1, 1, 1, 0,21, 0.00,60.00,Holiday
11,288984254.5650681
47,138549878.9999998
71,4835078.999999999
346,133714799.99999979
993,133115669.99999979
1017,133115669.99999979
1497,1665115.3686833997
1533,0.0
1557,0.0
2228,3563876.810944574
2366,1665115.3686833997
4122,12322650.336884639
4134,8488078.333418433
4171,3545058.6301972989
4231,0.0
4244,0.0
4355,1432178.4172391548
4480,0.0
2,1, 1, 1, 0,22, 0.00,60.00,Holiday
11,259477141.11178414
47,124250678.9999998
71,4835078.999999999
346,119415599.9999998
993,118816469.99999982
1017,118816469.99999982
1497,1635811.020816194
1533,0.0
1557,0.0
2228,3418043.4760002659
2366,1635811.020816194
4122,12194446.308202504
4134,8488078.333418433
4171,3545058.6301972989
4231,0.0
4244,0.0
4355,797502.3275816023
4480,0.0
2,1, 1, 1, 0,23, 0.00,60.00,Holiday
11,199531809.89465723
47,95652278.99999984
71,4835078.999999999
346,90817199.99999984
993,90218069.99999985
1017,90218069.99999985
1497,1053491.3044125257
1533,0.0
1557,0.0
2228,1628323.9310416978
2366,1053491.3044125257
4122,12033136.96361573
4134,8488078.333418433
4171,3545058.6301972989
4231,0.0
4244,0.0
4355,0.0
4480,0.0
2,1, 1, 1, 0,24, 0.00,60.00,Holiday
11,113687531.62520679
47,52754678.99999992
71,4835078.999999999
346,47919599.99999992
993,47320469.999999929
1017,47320469.999999929
1497,1286013.7111986583
1533,0.0
1557,0.0
2228,1579245.6615910945
2366,1286013.7111986583
4122,12033136.96361573
4134,8488078.333418433
4171,3545058.6301972989
4231,0.0
4244,0.0
4355,0.0
4480,0.0
2,2, 1, 2, 0, 1, 0.00,60.00,Friday
11,55689287.50417188
47,24156278.99999996
71,4835078.999999999
346,19321199.999999968
993,18722069.99999997
1017,18722069.99999997
1497,912864.2081578117
1533,0.0
1557,0.0
2228,777801.5405561907
2366,912864.2081578117
4122,12033136.96361573
4134,8488078.333418433
4171,3545058.6301972989
4231,0.0
4244,0.0
4355,0.0
4480,0.0
2,2, 1, 2, 0, 2, 0.00,60.00,Friday
11,55695117.37572578
47,24156278.99999996
71,4835078.999999999
346,19321199.999999968
993,18722069.99999997
1017,18722069.99999997
1497,1153259.5276769603
1533,0.0
1557,0.0
2228,783631.4121101021
2366,1153259.5276769603
4122,12033136.96361573
4134,8488078.333418433
4171,3545058.6301972989
4231,0.0
4244,0.0
4355,0.0
4480,0.0
2,2, 1, 2, 0, 3, 0.00,60.00,Friday
11,55695019.92961808
47,24156278.99999996
71,4835078.999999999
346,19321199.999999968
993,18722069.99999997
1017,18722069.99999997
1497,1031360.7676694447
1533,0.0
1557,0.0
2228,783533.9660023887
2366,1031360.7676694447
4122,12033136.96361573
4134,8488078.333418433
4171,3545058.6301972989
4231,0.0
4244,0.0
4355,0.0
4480,0.0
2,2, 1, 2, 0, 4, 0.00,60.00,Friday
11,56467234.19264978
47,24156278.99999996
71,4835078.999999999
346,19321199.999999968
993,18722069.99999997
1017,18722069.99999997
1497,1026739.7454370244
1533,0.0
1557,0.0
2228,1555748.229034095
2366,1026739.7454370244
4122,12033136.96361573
4134,8488078.333418433
4171,3545058.6301972989
4231,0.0
4244,0.0
4355,0.0
4480,0.0
2,2, 1, 2, 0, 5, 0.00,60.00,Friday
11,55689336.51054259
47,24156278.99999996
71,4835078.999999999
346,19321199.999999968
993,18722069.99999997
1017,18722069.99999997
1497,1026695.6838759775
1533,0.0
1557,0.0
2228,777850.5469269054
2366,1026695.6838759775
4122,12033136.96361573
4134,8488078.333418433
4171,3545058.6301972989
4231,0.0
4244,0.0
4355,0.0
4480,0.0
2,2, 1, 2, 0, 6, 0.00,60.00,Friday
11,116766745.61979942
47,53890838.99999992
71,5971238.999999999
346,47919599.99999992
993,47871269.999999929
1017,47871269.999999929
1497,74995566.22703474
1533,0.0
1557,0.0
2228,777943.4699447054
2366,1033136.9801624747
4122,14120981.979528016
4134,10575923.349330716
4171,3545058.6301972989
4231,73962429.24687228
4244,13847.824961133228
4355,60024.51230872497
4480,31838.833056870055
2,2, 1, 2, 0, 7, 0.00,60.00,Friday
11,180770787.96853204
47,80355554.46765839
71,5965154.467658507
346,74390399.99999988
993,69320069.9999999
1017,69320069.9999999
1497,524393424.31840059
1533,28597212.921243654
1557,28597212.921243654
2228,777968.7341679399
2366,1031180.0034176831
4122,29423650.55939644
4134,20357969.84591512
4171,3545058.6301972989
4231,494765031.3937392
4244,81079.02857272575
4355,0.0
4480,812465.178736541
2,2, 1, 2, 0, 8, 0.00,60.00,Friday
11,204051172.1021371
47,95271907.565841
71,20881507.565841143
346,74390399.99999988
993,83139479.99999988
1017,83139479.99999988
1497,376714860.8288406
1533,28882321.086319496
1557,28882321.086319496
2228,2543177.0596469335
2366,1669803.1538251327
4122,22859085.65106615
4134,16374294.36371469
4171,3545058.6301972989
4231,346162736.58869597
4244,59585.57247236153
4355,0.0
4480,177936.25311063458
2,2, 1, 2, 0, 9, 0.00,60.00,Friday
11,260762606.44171543
47,122658018.6487627
71,48267618.648762848
346,74390399.99999988
993,112981499.99999987
1017,112981499.99999987
1497,196321042.2663858
1533,285108.16507584266
1557,285108.16507584266
2228,4536171.442383312
2366,2135834.96104341
4122,20507963.28110789
4134,16374294.36371469
4171,3545058.6301972989
4231,193900099.14026658
4244,34789.04034810571
4355,0.0
4480,44164.029113440745
2,2, 1, 2, 0,10, 0.00,60.00,Friday
11,316344145.97469666
47,146445347.28437544
71,72054947.28437549
346,74390399.99999988
993,143958059.99999995
1017,143958059.99999995
1497,83053027.48112482
1533,285108.16507584266
1557,285108.16507584266
2228,5908200.611787433
2366,2822378.454921508
4122,19992985.36350785
4134,16424234.956997974
4171,3545058.6301972989
4231,79945540.86112747
4244,14206.609619842224
4355,0.0
4480,25346.105406043782
2,2, 1, 2, 0,11, 0.00,60.00,Friday
11,275985974.4304512
47,124569661.80468606
71,71628061.80468606
346,52941599.9999999
993,122509259.99999996
1017,122509259.99999996
1497,30403845.33063366
1533,513194.69713651677
1557,513194.69713651677
2228,7534251.02255976
2366,3017286.4940484336
4122,20260068.86752799
4134,16496844.42550926
4171,3545058.6301972989
4231,26873364.139448707
4244,4811.391630003678
4355,1079353.0972787233
4480,28568.246768768528
2,2, 1, 2, 0,12, 0.00,60.00,Friday
11,284089097.86484315
47,124415840.25108058
71,71474240.2510806
346,52941599.9999999
993,122509259.99999996
1017,122509259.99999996
1497,18436537.202820533
1533,11952079.865633984
1557,11952079.865633984
2228,10322762.692329966
2366,3787560.842531319
4122,21116836.341551804
4134,16925905.865356275
4171,3545058.6301972989
4231,2696896.4946552289
4244,482.85079434184396
4355,5692344.979055572
4480,31570.75003083584
2,2, 1, 2, 0,13, 0.00,60.00,Friday
11,290516468.21790567
47,124786763.69087944
71,71845163.69087947
346,52941599.9999999
993,122509259.99999996
1017,122509259.99999996
1497,17893842.365593904
1533,11952079.865633984
1557,11952079.865633984
2228,11729811.861688775
2366,4039266.571317018
4122,21616009.675419853
4134,17414331.339093977
4171,3545058.6301972989
4231,1902495.9286429014
4244,340.6217747688479
4355,9842599.197894263
4480,31683.17024858477
2,2, 1, 2, 0,14, 0.00,60.00,Friday
11,292784660.7697475
47,126019477.03151682
71,73077877.03151685
346,52941599.9999999
993,122509259.99999996
1017,122509259.99999996
1497,6240576.447113433
1533,513194.69713651677
1557,513194.69713651677
2228,11510313.349032158
2366,4158004.3817281585
4122,21807366.33616355
4134,17915404.598425747
4171,3545058.6301972989
4231,1569377.3682487575
4244,280.9804196723163
4355,10906232.169175828
4480,31730.903439497262
2,2, 1, 2, 0,15, 0.00,60.00,Friday
11,289880703.22959956
47,127408889.05549127
71,74467289.05549129
346,52941599.9999999
993,122509259.99999996
1017,122509259.99999996
1497,5122091.541696851
1533,427662.2476137639
1557,427662.2476137639
2228,9220388.990414929
2366,3331022.011588631
4122,21973964.206229908
4134,18293686.409973444
4171,3545058.6301972989
4231,1363407.282494456
4244,244.10365420719
4355,8736196.296684454
4480,31760.57712476298
2,2, 1, 2, 0,16, 0.00,60.00,Friday
11,286085668.41936698
47,129831650.30527154
71,76890050.30527157
346,52941599.9999999
993,122509259.99999996
1017,122509259.99999996
1497,4466617.5813776389
1533,427662.2476137639
1557,427662.2476137639
2228,8112818.8693256429
2366,3041822.1560603969
4122,22474260.765537718
4134,18929202.13534042
4171,3545058.6301972989
4231,997133.1777034781
4244,178.52614954741973
4355,3125687.557030987
4480,31812.396051541305
2,2, 1, 2, 0,17, 0.00,60.00,Friday
11,284589240.9037753
47,130541137.80124493
71,77599537.80124496
346,52941599.9999999
993,122509259.99999996
1017,122509259.99999996
1497,33745039.67115618
1533,29024875.168857416
1557,29024875.168857416
2228,8646138.078332466
2366,3395134.6333649579
4122,22157844.331290485
4134,18612785.701093183
4171,3545058.6301972989
4231,1325029.8689338067
4244,237.2325841979148
4355,702856.1562148058
4480,31767.304108469023
2,2, 1, 2, 0,18, 0.00,60.00,Friday
11,271737811.7554742
47,123776342.99999996
71,70834742.99999997
346,52941599.9999999
993,118102859.99999997
1017,118102859.99999997
1497,34150678.002613637
1533,29024875.168857416
1557,29024875.168857416
2228,8468550.503799208
2366,3110757.3265895515
4122,21358024.710297906
4134,17812966.080100605
4171,3545058.6301972989
4231,2015045.5071666709
4244,360.77258645210807
4355,0.0
4480,31672.76879068104
2,2, 1, 2, 0,19, 0.00,60.00,Friday
11,306703370.0701217
47,143344268.99999986
71,47505068.99999999
346,95839199.99999984
993,135564839.99999989
1017,135564839.99999989
1497,34762927.45334951
1533,28597212.921243654
1557,28597212.921243654
2228,7607656.450028659
2366,2590121.658185527
4122,20154504.287432936
4134,16609445.657235638
4171,3545058.6301972989
4231,3575592.8739203286
4244,640.1720877449469
4355,0.0
4480,31460.160572493085
2,2, 1, 2, 0,20, 0.00,60.00,Friday
11,363544612.8834225
47,171942668.99999974
71,47505068.99999999
346,124437599.9999998
993,164163239.99999974
1017,164163239.99999974
1497,13453688.607905964
1533,0.0
1557,0.0
2228,7020495.196826643
2366,2431764.1544731187
4122,20056425.540619226
4134,16444650.018844592
4171,3545058.6301972989
4231,11021924.453432847
4244,1973.3590028623626
4355,329301.810400418
4480,30507.976573623935
2,2, 1, 2, 0,21, 0.00,60.00,Friday
11,377441105.00181266
47,180270629.9999997
71,41533829.999999988
346,138736799.9999998
993,169616699.99999974
1017,169616699.99999974
1497,26820655.744228744
1533,0.0
1557,0.0
2228,5960003.303725663
2366,2429472.2745549667
4122,20199175.26060855
4134,16378266.458707827
4171,3545058.6301972989
4231,24391183.46967378
4244,4366.98343322043
4355,1361250.6634125335
4480,28978.79063295495
2,2, 1, 2, 0,22, 0.00,60.00,Friday
11,295215202.91235998
47,143777915.9999998
71,19340315.999999998
346,124437599.9999998
993,132085079.9999998
1017,132085079.9999998
1497,7449358.007699527
1533,0.0
1557,0.0
2228,4282168.585176218
2366,1696100.865966726
4122,14092364.656790745
4134,10355703.099942597
4171,3545058.6301972989
4231,5753257.141732801
4244,1030.0598433955486
4355,945460.0608568288
4480,31183.549693002376
2,2, 1, 2, 0,23, 0.00,60.00,Friday
11,203915829.51586477
47,96788438.99999984
71,5971238.999999999
346,90817199.99999984
993,90768869.99999985
1017,90768869.99999985
1497,7065732.355154592
1533,0.0
1557,0.0
2228,2225312.2914635746
2366,1338249.715420093
4122,13934502.133133408
4134,10355703.099942597
4171,3545058.6301972989
4231,5727482.639734497
4244,1025.4451914100867
4355,166497.1529318574
4480,31183.49314471882
2,2, 1, 2, 0,24, 0.00,60.00,Friday
11,115296983.41637863
47,52754678.99999992
71,4835078.999999999
346,47919599.99999992
993,47320469.999999929
1017,47320469.999999929
1497,7012650.439772341
1533,0.0
1557,0.0
2228,1288867.808908563
2366,1307575.3664461722
4122,13900761.730139897
4134,10355703.099942597
4171,3545058.6301972989
4231,5705075.0733261699
4244,1021.4333536324888
4355,0.0
4480,31183.443976581315
2,3, 1, 3, 0, 1, 0.00,60.00,Saturday
11,57374075.3852752
47,24156278.99999996
71,4835078.999999999
346,19321199.999999968
993,18722069.99999997
1017,18722069.99999997
1497,1325990.4794604562
1533,0.0
1557,0.0
2228,2462589.421659503
2366,1325990.4794604562
4122,12033136.96361573
4134,8488078.333418433
4171,3545058.6301972989
4231,0.0
4244,0.0
4355,0.0
4480,0.0
2,3, 1, 3, 0, 2, 0.00,60.00,Saturday
11,56539928.57769161
47,24156278.99999996
71,4835078.999999999
346,19321199.999999968
993,18722069.99999997
1017,18722069.99999997
1497,1055504.4924669718
1533,0.0
1557,0.0
2228,1628442.6140759234
2366,1055504.4924669718
4122,12033136.96361573
4134,8488078.333418433
4171,3545058.6301972989
4231,0.0
4244,0.0
4355,0.0
4480,0.0
2,3, 1, 3, 0, 3, 0.00,60.00,Saturday
11,56515186.33356822
47,24156278.99999996
71,4835078.999999999
346,19321199.999999968
993,18722069.99999997
1017,18722069.99999997
1497,1307532.6036290085
1533,0.0
1557,0.0
2228,1603700.3699525349
2366,1307532.6036290085
4122,12033136.96361573
4134,8488078.333418433
4171,3545058.6301972989
4231,0.0
4244,0.0
4355,0.0
4480,0.0
2,3, 1, 3, 0, 4, 0.00,60.00,Saturday
11,56490872.84990429
47,24156278.99999996
71,4835078.999999999
346,19321199.999999968
993,18722069.99999997
1017,18722069.99999997
1497,1036288.8355608251
1533,0.0
1557,0.0
2228,1579386.886288605
2366,1036288.8355608251
4122,12033136.96361573
4134,8488078.333418433
4171,3545058.6301972989
4231,0.0
4244,0.0
4355,0.0
4480,0.0
2,3, 1, 3, 0, 5, 0.00,60.00,Saturday
11,55701061.49553136
47,24156278.99999996
71,4835078.999999999
346,19321199.999999968
993,18722069.99999997
1017,18722069.99999997
1497,1036497.7598325386
1533,0.0
1557,0.0
2228,789575.5319156688
2366,1036497.7598325386
4122,12033136.96361573
4134,8488078.333418433
4171,3545058.6301972989
4231,0.0
4244,0.0
4355,0.0
4480,0.0
2,3, 1, 3, 0, 6, 0.00,60.00,Saturday
11,115588600.3282988
47,52754678.99999992
71,4835078.999999999
346,47919599.99999992
993,47320469.999999929
1017,47320469.999999929
1497,23292793.878166289
1533,0.0
1557,0.0
2228,1579606.3158360832
2366,1303559.3660660349
4122,13900761.730139897
4134,10355703.099942597
4171,3545058.6301972989
4231,21989234.51210025
4244,3936.9398759569514
4355,0.0
4480,29146.342446899624
2,3, 1, 3, 0, 7, 0.00,60.00,Saturday
11,172229592.83533985
47,80352823.9553328
71,5962423.955332918
346,74390399.99999988
993,69320069.9999999
1017,69320069.9999999
1497,228583087.54537613
1533,28597212.921243654
1557,28597212.921243654
2228,1591321.4563800735
2366,1045271.2297714844
4122,20778642.907178768
4134,17111491.524403413
4171,3545058.6301972989
4231,198940603.394361
4244,39567.376304614925
4355,0.0
4480,147167.14014364189
2,3, 1, 3, 0, 8, 0.00,60.00,Saturday
11,180330809.11349169
47,83579619.65336955
71,9189219.653369673
346,74390399.99999988
993,73192139.99999988
1017,73192139.99999988
1497,206565296.610012
1533,28597212.921243654
1557,28597212.921243654
2228,3533943.960935733
2366,1682224.823823708
4122,19952546.278120489
4134,16374294.36371469
4171,3545058.6301972989
4231,176285858.86494465
4244,33860.65060359983
4355,0.0
4480,38698.57046233174
2,3, 1, 3, 0, 9, 0.00,60.00,Saturday
11,216891770.48816229
47,101466330.60550763
71,27075930.605507759
346,74390399.99999988
993,90883619.99999987
1017,90883619.99999987
1497,121238277.64274393
1533,285108.16507584266
1557,285108.16507584266
2228,4574086.1818582699
2366,2019871.3644340565
4122,19920710.63899503
4134,16374314.548423717
4171,3545058.6301972989
4231,118933298.11323405
4244,21371.979523655886
4355,0.0
4480,25651.082277732712
2,3, 1, 3, 0,10, 0.00,60.00,Saturday
11,259873722.71051968
47,118443660.81700571
71,44053260.81700584
346,74390399.99999988
993,114116039.99999988
1017,114116039.99999988
1497,44389962.37236467
1533,285108.16507584266
1557,285108.16507584266
2228,4698207.113901514
2366,2142431.3201929607
4122,20409018.14372641
4134,16424115.009236254
4171,3545058.6301972989
4231,41962422.88709587
4244,7512.928013254305
4355,2172109.249685359
4480,27174.458187454235
2,3, 1, 3, 0,11, 0.00,60.00,Saturday
11,266102693.34433926
47,117146722.40721673
71,64205122.40721676
346,52941599.9999999
993,115899659.99999997
1017,115899659.99999997
1497,29258041.557900333
1533,513194.69713651677
1557,513194.69713651677
2228,7607853.192127056
2366,2816721.1228566935
4122,21022208.15943703
4134,16587986.139065329
4171,3545058.6301972989
4231,25928125.73790712
4244,4642.156691276408
4355,4392830.28834124
4480,28777.140525965602
2,3, 1, 3, 0,12, 0.00,60.00,Saturday
11,272786126.8521247
47,117568510.09124527
71,64626910.09124528
346,52941599.9999999
993,115899659.99999997
1017,115899659.99999997
1497,27065627.198420697
1533,11952079.865633984
1557,11952079.865633984
2228,9948981.04089307
2366,3172678.796608908
4122,22309462.40022198
4134,17342032.55426187
4171,3545058.6301972989
4231,11940868.536177807
4244,2137.8862219041395
4355,7026955.767512424
4480,30419.666030053653
2,3, 1, 3, 0,13, 0.00,60.00,Saturday
11,272131998.3360956
47,114277699.91164036
71,61336099.91164037
346,52941599.9999999
993,114247259.99999997
1017,114247259.99999997
1497,21021946.841773549
1533,11952079.865633984
1557,11952079.865633984
2228,11322742.525139066
2366,3510585.0916669818
4122,23513234.05462093
4134,18199964.144494758
4171,3545058.6301972989
4231,5559281.8844725829
4244,995.330625112096
4355,8738852.562134674
4480,31213.95193548912
2,3, 1, 3, 0,14, 0.00,60.00,Saturday
11,272806831.94535389
47,114316477.8160921
71,61374877.81609212
346,52941599.9999999
993,114247259.99999997
1017,114247259.99999997
1497,8395779.653962937
1533,513194.69713651677
1557,513194.69713651677
2228,11286778.83202792
2366,3504067.129218173
4122,24279946.25399139
4134,18986602.815519468
4171,3545058.6301972989
4231,4378517.827608246
4244,783.9273087752822
4355,8644215.267612964
4480,31369.848320827332
2,3, 1, 3, 0,15, 0.00,60.00,Saturday
11,271370169.9122079
47,113545335.07800968
71,60603735.078009698
346,52941599.9999999
993,114247259.99999997
1017,114247259.99999997
1497,7448564.745270891
1533,427662.2476137639
1557,427662.2476137639
2228,8844359.391160857
2366,2867540.5591051417
4122,25209240.70074309
4134,19745881.866395493
4171,3545058.6301972989
4231,4153361.9385519858
4244,743.6155281426118
4355,9491829.534661618
4480,31401.592104578078
2,3, 1, 3, 0,16, 0.00,60.00,Saturday
11,272124769.2158128
47,113330235.48523027
71,60388635.48523028
346,52941599.9999999
993,114247259.99999997
1017,114247259.99999997
1497,7245754.031337359
1533,427662.2476137639
1557,427662.2476137639
2228,8643246.239756903
2366,2771786.241919007
4122,25813162.081901425
4134,20236160.485612424
4171,3545058.6301972989
4231,4046305.5418045877
4244,724.448212559199
4355,10058723.4596518
4480,31417.501059943945
2,3, 1, 3, 0,17, 0.00,60.00,Saturday
11,270276090.8368163
47,117559010.33001672
71,64617410.330016728
346,52941599.9999999
993,114247259.99999997
1017,114247259.99999997
1497,38035555.90465125
1533,29024875.168857416
1557,29024875.168857416
2228,9172566.046577238
2366,2932256.290033063
4122,24635224.120084928
4134,20155299.389633996
4171,3545058.6301972989
4231,6078424.445760766
4244,1088.277610134116
4355,4629784.771416862
4480,31157.291110518963
2,3, 1, 3, 0,18, 0.00,60.00,Saturday
11,255554848.29957406
47,111937382.99999996
71,64017782.99999998
346,47919599.99999992
993,113145659.99999997
1017,113145659.99999997
1497,39929561.71749283
1533,28597212.921243654
1557,28597212.921243654
2228,7935854.4533896599
2366,2617972.0491450258
4122,22423797.613385567
4134,18862632.36691883
4171,3545058.6301972989
4231,8714376.747104144
4244,1560.2169912239243
4355,79774.06659746269
4480,30818.949210207025
2,3, 1, 3, 0,19, 0.00,60.00,Saturday
11,282717605.03017088
47,128942549.99999987
71,38125349.999999988
346,90817199.99999984
993,125066699.99999988
1017,125066699.99999988
1497,69535955.68457183
1533,28597212.921243654
1557,28597212.921243654
2228,8728955.41321852
2366,2764084.424780084
4122,19944932.632437774
4134,16399874.002240474
4171,3545058.6301972989
4231,38174658.3385481
4244,6834.768831145992
4355,0.0
4480,27632.215683599377
2,3, 1, 3, 0,20, 0.00,60.00,Saturday
11,306618619.13877049
47,142745273.9999998
71,23329673.999999994
346,119415599.9999998
993,138176819.9999998
1017,138176819.9999998
1497,36357845.322598088
1533,0.0
1557,0.0
2228,6269826.846936691
2366,2110479.3917686298
4122,18276990.533703194
4134,14506669.597190522
4171,3545058.6301972989
4231,34247365.93082945
4244,6131.628661533341
4355,1115649.1437596239
4480,27926.985709675322
2,3, 1, 3, 0,21, 0.00,60.00,Saturday
11,336772393.1818022
47,157044473.99999977
71,23329673.999999994
346,133714799.99999979
993,152476019.99999977
1017,152476019.99999977
1497,45189118.551508519
1533,0.0
1557,0.0
2228,5739592.169775685
2366,2035175.502793246
4122,18627283.2048966