Program Version,EnergyPlus, Version 9.0.1-bb7ca4f0da, YMD=2019.12.18 15:35
1,5,Environment Title[],Latitude[deg],Longitude[deg],Time Zone[],Elevation[m]
2,8,Day of Simulation[],Month[],Day of Month[],DST Indicator[1=yes 0=no],Hour[],StartMinute[],EndMinute[],DayType
3,5,Cumulative Day of Simulation[],Month[],Day of Month[],DST Indicator[1=yes 0=no],DayType  ! When Daily Meters Requested
4,2,Cumulative Days of Simulation[],Month[]  ! When Monthly Meters Requested
5,1,Cumulative Days of Simulation[] ! When Run Period Meters Requested
6,1,Calendar Year of Simulation[] ! When Annual Meters Requested
1557,1,Receptacle:InteriorEquipment:Gas [J] !Hourly
4244,1,Heating:Electricity [J] !Hourly
47,1,InteriorLights:Electricity [J] !Hourly
11,1,Electricity:Facility [J] !Hourly
993,1,InteriorEquipment:Electricity [J] !Hourly
4122,1,Fans:Electricity [J] !Hourly
4480,1,Pumps:Electricity [J] !Hourly
4355,1,Cooling:Electricity [J] !Hourly
2228,1,WaterSystems:Electricity [J] !Hourly
1497,1,Gas:Facility [J] !Hourly
1533,1,InteriorEquipment:Gas [J] !Hourly
4231,1,Heating:Gas [J] !Hourly
2366,1,WaterSystems:Gas [J] !Hourly
1017,1,Receptacle:InteriorEquipment:Electricity [J] !Hourly
71,1,ComplianceLtg:InteriorLights:Electricity [J] !Hourly
346,1,NonComplianceLtg:InteriorLights:Electricity [J] !Hourly
4134,1,General:Fans:Electricity [J] !Hourly
4171,1,ProcessMotors:Fans:Electricity [J] !Hourly
End of Data Dictionary
1,SANTA-ROSA_724957_CZ2010,  38.51,-122.81,  -8.00,  45.00
2,1, 1, 1, 0, 1, 0.00,60.00,Holiday
11,55711758.312396679
47,24156278.99999996
71,4835078.999999999
346,19321199.999999968
993,18722069.99999997
1017,18722069.99999997
1497,1043532.9755748918
1533,0.0
1557,0.0
2228,800272.348780975
2366,1043532.9755748918
4122,12033136.96361573
4134,8488078.333418433
4171,3545058.6301972989
4231,0.0
4244,0.0
4355,0.0
4480,0.0
2,1, 1, 1, 0, 2, 0.00,60.00,Holiday
11,56512050.35887502
47,24156278.99999996
71,4835078.999999999
346,19321199.999999968
993,18722069.99999997
1017,18722069.99999997
1497,1043629.2664035371
1533,0.0
1557,0.0
2228,1600564.3952593208
2366,1043629.2664035371
4122,12033136.96361573
4134,8488078.333418433
4171,3545058.6301972989
4231,0.0
4244,0.0
4355,0.0
4480,0.0
2,1, 1, 1, 0, 3, 0.00,60.00,Holiday
11,56511900.5646787
47,24156278.99999996
71,4835078.999999999
346,19321199.999999968
993,18722069.99999997
1017,18722069.99999997
1497,1304383.114142875
1533,0.0
1557,0.0
2228,1600414.6010629978
2366,1304383.114142875
4122,12033136.96361573
4134,8488078.333418433
4171,3545058.6301972989
4231,0.0
4244,0.0
4355,0.0
4480,0.0
2,1, 1, 1, 0, 4, 0.00,60.00,Holiday
11,56510743.280444148
47,24156278.99999996
71,4835078.999999999
346,19321199.999999968
993,18722069.99999997
1017,18722069.99999997
1497,1332925.681168386
1533,0.0
1557,0.0
2228,1586958.9430494554
2366,1038151.737388446
4122,12045435.33739472
4134,8488078.333418433
4171,3545058.6301972989
4231,294773.9437799402
4244,0.0
4355,0.0
4480,0.0
2,1, 1, 1, 0, 5, 0.00,60.00,Holiday
11,56225079.61205627
47,24156278.99999996
71,4835078.999999999
346,19321199.999999968
993,18722069.99999997
1017,18722069.99999997
1497,2822703.362053716
1533,0.0
1557,0.0
2228,1243594.6174159568
2366,1038408.7200380941
4122,12103135.994640349
4134,8488078.333418433
4171,3545058.6301972989
4231,1784294.642015622
4244,0.0
4355,0.0
4480,0.0
2,1, 1, 1, 0, 6, 0.00,60.00,Holiday
11,115157371.3794312
47,52754678.99999992
71,4835078.999999999
346,47919599.99999992
993,47320469.999999929
1017,47320469.999999929
1497,38507119.930466178
1533,0.0
1557,0.0
2228,1136694.8824994856
2366,1306429.0134962304
4122,13906118.246949749
4134,10346301.769593303
4171,3545058.6301972989
4231,37200690.91696994
4244,6597.151241471582
4355,0.0
4480,32812.09874053498
2,1, 1, 1, 0, 7, 0.00,60.00,Holiday
11,173004705.19841258
47,74203478.99999988
71,4835078.999999999
346,69368399.9999999
993,68769269.9999999
1017,68769269.9999999
1497,440976165.38346686
1533,28597212.921243654
1557,28597212.921243654
2228,1600270.8993464548
2366,1043663.8987964264
4122,28392766.683510305
4134,10346301.769593303
4171,3545058.6301972989
4231,411335288.56342676
4244,5579.14443406268
4355,0.0
4480,33339.47112186906
2,1, 1, 1, 0, 8, 0.00,60.00,Holiday
11,167173223.39546974
47,74199523.31555876
71,4831123.315558886
346,69368399.9999999
993,68769269.9999999
1017,68769269.9999999
1497,260133530.33295519
1533,28597212.921243654
1557,28597212.921243654
2228,2463175.289068958
2366,1324672.5883351714
4122,21702615.512763859
4134,10346301.769593303
4171,3545058.6301972989
4231,230211644.82337637
4244,4627.760421864719
4355,0.0
4480,34011.51765627404
2,1, 1, 1, 0, 9, 0.00,60.00,Holiday
11,185664226.95728234
47,77828627.1320551
71,8460227.132055236
346,69368399.9999999
993,72641339.99999988
1017,72641339.99999988
1497,481731828.7618149
1533,0.0
1557,0.0
2228,2507013.6208992919
2366,1338405.6561998125
4122,31920749.55094176
4134,23109741.38103548
4171,3545058.6301972989
4231,480393423.1056151
4244,73543.2432035911
4355,0.0
4480,692953.4101826369
2,1, 1, 1, 0,10, 0.00,60.00,Holiday
11,176629634.4346109
47,77691758.96101932
71,8323358.961019444
346,69368399.9999999
993,72641339.99999988
1017,72641339.99999988
1497,327475110.26715108
1533,0.0
1557,0.0
2228,2552321.7097680198
2366,1512108.9536379828
4122,23612549.6841726
4134,16401359.653348105
4171,3545058.6301972989
4231,325963001.31351307
4244,45529.45346203375
4355,0.0
4480,86134.62618896493
2,1, 1, 1, 0,11, 0.00,60.00,Holiday
11,182040334.10713396
47,77590729.93352324
71,29671129.93352329
346,47919599.99999992
993,74424959.99999996
1017,74424959.99999996
1497,273691928.9101661
1533,0.0
1557,0.0
2228,5905459.480941286
2366,2176400.926999894
4122,24055554.839310409
4134,16377583.429120392
4171,3545058.6301972989
4231,271515527.9831662
4244,29832.790890598066
4355,0.0
4480,33797.06246844749
2,1, 1, 1, 0,12, 0.00,60.00,Holiday
11,181975240.2487313
47,77496700.6869377
71,29577100.68693775
346,47919599.99999992
993,74424959.99999996
1017,74424959.99999996
1497,269517137.8971317
1533,11438885.168497468
1557,11438885.168497468
2228,6458111.957294699
2366,2090075.6356731919
4122,23534254.87631526
4134,16377583.429120392
4171,3545058.6301972989
4231,255988177.09296105
4244,29410.409719353043
4355,0.0
4480,31802.318464301457
2,1, 1, 1, 0,13, 0.00,60.00,Holiday
11,208509154.70815218
47,88130436.70795048
71,40210836.70795049
346,47919599.99999992
993,89913239.99999997
1017,89913239.99999997
1497,217825250.78323279
1533,11438885.168497468
1557,11438885.168497468
2228,7252882.590893353
2366,2460229.7858732219
4122,23162007.221241155
4134,16377583.429120392
4171,3545058.6301972989
4231,203926135.82886208
4244,21230.228373466787
4355,0.0
4480,29357.959693755984
2,1, 1, 1, 0,14, 0.00,60.00,Holiday
11,206271591.75670059
47,86996679.51352912
71,39077079.51352916
346,47919599.99999992
993,89913239.99999997
1017,89913239.99999997
1497,169633066.88114888
1533,0.0
1557,0.0
2228,7257782.377023556
2366,2479600.2636868909
4122,22054903.804895484
4134,16377583.429120392
4171,3545058.6301972989
4231,167153466.61746199
4244,19678.79195649492
4355,0.0
4480,29307.269295932903
2,1, 1, 1, 0,15, 0.00,60.00,Holiday
11,205706901.46772988
47,87199788.23910466
71,39280188.23910468
346,47919599.99999992
993,89913239.99999997
1017,89913239.99999997
1497,155310416.26709665
1533,0.0
1557,0.0
2228,7186550.28704644
2366,2430958.0432117956
4122,21357819.537661058
4134,16377583.429120392
4171,3545058.6301972989
4231,152879458.22388486
4244,20183.82310482547
4355,0.0
4480,29319.580812900498
2,1, 1, 1, 0,16, 0.00,60.00,Holiday
11,204082884.5773562
47,86072314.68309263
71,38152714.68309264
346,47919599.99999992
993,89913239.99999997
1017,89913239.99999997
1497,139962062.86481477
1533,0.0
1557,0.0
2228,7352194.6034439769
2366,2432159.995132091
4122,20695317.45063039
4134,16377583.429120392
4171,3545058.6301972989
4231,137529902.8696827
4244,20481.42639416362
4355,0.0
4480,29336.41379507588
2,1, 1, 1, 0,17, 0.00,60.00,Holiday
11,206707087.85801978
47,88619763.48774845
71,40700163.48774847
346,47919599.99999992
993,89913239.99999997
1017,89913239.99999997
1497,164756620.6715074
1533,28597212.921243654
1557,28597212.921243654
2228,7520066.111297508
2366,2418492.6278977098
4122,20604368.406063256
4134,16377583.429120392
4171,3545058.6301972989
4231,133740915.12236601
4244,20320.79371715566
4355,0.0
4480,29329.05919341089
2,1, 1, 1, 0,18, 0.00,60.00,Holiday
11,181604748.54861907
47,78647111.99999994
71,30727511.99999999
346,47919599.99999992
993,74424959.99999996
1017,74424959.99999996
1497,207692483.34701956
1533,28597212.921243654
1557,28597212.921243654
2228,7270998.625487922
2366,2158121.9720061828
4122,21206385.004498278
4134,16377583.429120392
4171,3545058.6301972989
4231,176937148.45376975
4244,25103.258596092972
4355,0.0
4480,30189.660036842804
2,1, 1, 1, 0,19, 0.00,60.00,Holiday
11,231640611.74961699
47,106749035.99999982
71,15931835.999999995
346,90817199.99999984
993,101834279.99999984
1017,101834279.99999984
1497,204134053.3907675
1533,28597212.921243654
1557,28597212.921243654
2228,4724401.14716905
2366,2009826.2914829087
4122,18269184.666355485
4134,14519359.992945523
4171,3545058.6301972989
4231,173527014.17804096
4244,30875.670323026145
4355,0.0
4480,32834.26576961403
2,1, 1, 1, 0,20, 0.00,60.00,Holiday
11,260904634.00637947
47,124250678.9999998
71,4835078.999999999
346,119415599.9999998
993,118816469.99999982
1017,118816469.99999982
1497,2536551.783335202
1533,0.0
1557,0.0
2228,5784807.287015637
2366,2032527.9840095305
4122,12052677.719364034
4134,8488078.333418433
4171,3545058.6301972989
4231,504023.7993256711
4244,0.0
4355,0.0
4480,0.0
2,1, 1, 1, 0,21, 0.00,60.00,Holiday
11,288278028.1038874
47,138549878.9999998
71,4835078.999999999
346,133714799.99999979
993,133115669.99999979
1017,133115669.99999979
1497,2619034.2634524477
1533,0.0
1557,0.0
2228,4541538.728400739
2366,1685127.5807625973
4122,12070940.375486922
4134,8488078.333418433
4171,3545058.6301972989
4231,933906.68268985
4244,0.0
4355,0.0
4480,0.0
2,1, 1, 1, 0,22, 0.00,60.00,Holiday
11,258498762.1656237
47,124250678.9999998
71,4835078.999999999
346,119415599.9999998
993,118816469.99999982
1017,118816469.99999982
1497,8500770.909318103
1533,0.0
1557,0.0
2228,3137927.264241772
2366,1651663.3988151313
4122,12293685.901382138
4134,8488078.333418433
4171,3545058.6301972989
4231,6849107.510502973
4244,0.0
4355,0.0
4480,0.0
2,1, 1, 1, 0,23, 0.00,60.00,Holiday
11,199855225.8087514
47,95652278.99999984
71,4835078.999999999
346,90817199.99999984
993,90218069.99999985
1017,90218069.99999985
1497,1324588.3960440355
1533,0.0
1557,0.0
2228,1951739.8451358956
2366,1324588.3960440355
4122,12033136.96361573
4134,8488078.333418433
4171,3545058.6301972989
4231,0.0
4244,0.0
4355,0.0
4480,0.0
2,1, 1, 1, 0,24, 0.00,60.00,Holiday
11,113695132.49151972
47,52754678.99999992
71,4835078.999999999
346,47919599.99999992
993,47320469.999999929
1017,47320469.999999929
1497,1038466.6634673836
1533,0.0
1557,0.0
2228,1586846.5279040172
2366,1038466.6634673836
4122,12033136.96361573
4134,8488078.333418433
4171,3545058.6301972989
4231,0.0
4244,0.0
4355,0.0
4480,0.0
2,2, 1, 2, 0, 1, 0.00,60.00,Friday
11,55691907.836521048
47,24156278.99999996
71,4835078.999999999
346,19321199.999999968
993,18722069.99999997
1017,18722069.99999997
1497,1030194.0123258021
1533,0.0
1557,0.0
2228,780421.8729053378
2366,1030194.0123258021
4122,12033136.96361573
4134,8488078.333418433
4171,3545058.6301972989
4231,0.0
4244,0.0
4355,0.0
4480,0.0
2,2, 1, 2, 0, 2, 0.00,60.00,Friday
11,55844624.909868989
47,24156278.99999996
71,4835078.999999999
346,19321199.999999968
993,18722069.99999997
1017,18722069.99999997
1497,4866492.034996428
1533,0.0
1557,0.0
2228,786814.3116246291
2366,1035470.7304155375
4122,12179461.598244384
4134,8488078.333418433
4171,3545058.6301972989
4231,3831021.3045808908
4244,0.0
4355,0.0
4480,0.0
2,2, 1, 2, 0, 3, 0.00,60.00,Friday
11,57446076.39971512
47,24156278.99999996
71,4835078.999999999
346,19321199.999999968
993,18722069.99999997
1017,18722069.99999997
1497,26560461.715153777
1533,0.0
1557,0.0
2228,1573740.4029976277
2366,1119263.4749636073
4122,12993986.99671752
4134,8488078.333418433
4171,3545058.6301972989
4231,25441198.240190168
4244,0.0
4355,0.0
4480,0.0
2,2, 1, 2, 0, 4, 0.00,60.00,Friday
11,57525406.69394067
47,24156278.99999996
71,4835078.999999999
346,19321199.999999968
993,18722069.99999997
1017,18722069.99999997
1497,49460662.06459861
1533,0.0
1557,0.0
2228,780312.0506316017
2366,1126737.0016765379
4122,13866745.643309098
4134,8488078.333418433
4171,3545058.6301972989
4231,48333925.062922079
4244,0.0
4355,0.0
4480,0.0
2,2, 1, 2, 0, 5, 0.00,60.00,Friday
11,59110167.65530245
47,24156278.99999996
71,4835078.999999999
346,19321199.999999968
993,18722069.99999997
1017,18722069.99999997
1497,90207441.78083828
1533,0.0
1557,0.0
2228,780416.5021653809
2366,1107562.9199664584
4122,15451402.153137107
4134,8488078.333418433
4171,3545058.6301972989
4231,89099878.86087184
4244,0.0
4355,0.0
4480,0.0
2,2, 1, 2, 0, 6, 0.00,60.00,Friday
11,124556903.98150787
47,53890838.99999992
71,5971238.999999999
346,47919599.99999992
993,47871269.999999929
1017,47871269.999999929
1497,311112354.3438426
1533,0.0
1557,0.0
2228,780483.36367347
2366,1036927.4044142217
4122,21407066.654865594
4134,15120485.19987134
4171,3545058.6301972989
4231,310075426.93942847
4244,48172.78736049768
4355,0.0
4480,559072.1756083325
2,2, 1, 2, 0, 7, 0.00,60.00,Friday
11,208593649.71385197
47,80361638.99999988
71,5971238.999999999
346,74390399.99999988
993,69320069.9999999
1017,69320069.9999999
1497,1341223584.5243548
1533,28597212.921243654
1557,28597212.921243654
2228,780341.9182053614
2366,1034827.6428942515
4122,56115520.22221043
4134,24441689.833672976
4171,3545058.6301972989
4231,1311591543.9602168
4244,132161.1953459288
4355,0.0
4480,1883917.3780903386
2,2, 1, 2, 0, 8, 0.00,60.00,Friday
11,219931427.91198785
47,95898655.66385643
71,21508255.663856564
346,74390399.99999988
993,83139479.99999988
1017,83139479.99999988
1497,897137898.2003293
1533,28882321.086319496
1557,28882321.086319496
2228,3435813.7352349294
2366,1689905.3388615233
4122,36567391.11922135
4134,16573299.461408193
4171,3545058.6301972989
4231,866565671.7751484
4244,100635.8532550434
4355,0.0
4480,789451.540420142
2,2, 1, 2, 0, 9, 0.00,60.00,Friday
11,273302280.1860993
47,123401846.7293411
71,49011446.72934124
346,74390399.99999988
993,112981499.99999987
1017,112981499.99999987
1497,655654157.6774385
1533,285108.16507584266
1557,285108.16507584266
2228,4634683.827408271
2366,2455408.3719142836
4122,31980632.735105285
4134,16377583.429120392
4171,3545058.6301972989
4231,652913641.1404485
4244,73594.95595400392
4355,0.0
4480,230021.93829074564
2,2, 1, 2, 0,10, 0.00,60.00,Friday
11,329404239.1633286
47,148748854.84492696
71,74358454.84492702
346,74390399.99999988
993,143958059.99999995
1017,143958059.99999995
1497,527730662.4930398
1533,285108.16507584266
1557,285108.16507584266
2228,6996186.578189904
2366,2942710.078727702
4122,29517232.458134019
4134,16419380.758096986
4171,3545058.6301972989
4231,524502844.2492362
4244,56737.83259199175
4355,0.0
4480,127167.44948574252
2,2, 1, 2, 0,11, 0.00,60.00,Friday
11,288256978.3694017
47,128092986.06360674
71,75151386.06360677
346,52941599.9999999
993,122509259.99999996
1017,122509259.99999996
1497,505382722.68495967
1533,513194.69713651677
1557,513194.69713651677
2228,8030666.182172533
2366,3166103.8156914517
4122,29475827.66797266
4134,16428358.585981505
4171,3545058.6301972989
4231,501703424.1721317
4244,51105.001559763594
4355,0.0
4480,97133.45409002886
2,2, 1, 2, 0,12, 0.00,60.00,Friday
11,285323278.6412102
47,124809625.63975886
71,71868025.63975889
346,52941599.9999999
993,122509259.99999996
1017,122509259.99999996
1497,401881001.1143567
1533,11952079.865633984
1557,11952079.865633984
2228,11632512.431089648
2366,4270800.755683325
4122,26260889.83669625
4134,16627745.442020206
4171,3545058.6301972989
4231,385658120.4930394
4244,44262.96173620385
4355,0.0
4480,66727.77192926809
2,2, 1, 2, 0,13, 0.00,60.00,Friday
11,287634737.8928568
47,127011880.10031188
71,74070280.10031189
346,52941599.9999999
993,122509259.99999996
1017,122509259.99999996
1497,347053685.0519136
1533,11952079.865633984
1557,11952079.865633984
2228,13064162.495028517
2366,4427604.369337932
4122,24957839.089248808
4134,16702187.252148636
4171,3545058.6301972989
4231,330674000.81694176
4244,39947.76966823753
4355,0.0
4480,51648.43859936575
2,2, 1, 2, 0,14, 0.00,60.00,Friday
11,287285018.3445702
47,128664199.68718861
71,75722599.68718863
346,52941599.9999999
993,122509259.99999996
1017,122509259.99999996
1497,276555173.1247249
1533,513194.69713651677
1557,513194.69713651677
2228,11869976.66901923
2366,4473048.191080854
4122,24172753.531467856
4134,16768270.944378183
4171,3545058.6301972989
4231,271568930.2365076
4244,31664.467093907275
4355,0.0
4480,37163.98980075425
2,2, 1, 2, 0,15, 0.00,60.00,Friday
11,284413088.6584585
47,128387906.85012776
71,75446306.85012779
346,52941599.9999999
993,122509259.99999996
1017,122509259.99999996
1497,202389539.85737194
1533,427662.2476137639
1557,427662.2476137639
2228,10312663.402490216
2366,3446409.3742849074
4122,23149720.748109446
4134,16975128.361350977
4171,3545058.6301972989
4231,198515468.23547323
4244,23271.23932798519
4355,0.0
4480,30266.418403131087
2,2, 1, 2, 0,16, 0.00,60.00,Friday
11,278914748.68757537
47,125037774.7531352
71,72096174.75313522
346,52941599.9999999
993,122509259.99999996
1017,122509259.99999996
1497,134328253.85899989
1533,427662.2476137639
1557,427662.2476137639
2228,9280750.874698535
2366,3511721.186932061
4122,22038777.89265582
4134,17636340.953314295
4171,3545058.6301972989
4231,130388870.42445407
4244,18873.844279532255
4355,0.0
4480,29311.322806170614
2,2, 1, 2, 0,17, 0.00,60.00,Friday
11,284675996.86470726
47,130090961.73761778
71,77149361.7376178
346,52941599.9999999
993,122509259.99999996
1017,122509259.99999996
1497,186041879.30845104
1533,29024875.168857416
1557,29024875.168857416
2228,9595082.314403153
2366,3624185.4385276518
4122,22429878.976864488
4134,17673790.364069188
4171,3545058.6301972989
4231,153392818.70106597
4244,21351.96808676086
4355,0.0
4480,29461.867735162887
2,2, 1, 2, 0,18, 0.00,60.00,Friday
11,275217474.30151095
47,123776342.99999996
71,70834742.99999997
346,52941599.9999999
993,118102859.99999997
1017,118102859.99999997
1497,274035521.5324303
1533,29024875.168857416
1557,29024875.168857416
2228,9711278.327106374
2366,3168355.7757889025
4122,23562415.566508075
4134,17190486.281587818
4171,3545058.6301972989
4231,241842290.58778397
4244,30670.787856361487
4355,0.0
4480,33906.62004024523
2,2, 1, 2, 0,19, 0.00,60.00,Friday
11,308762005.9847837
47,143344268.99999986
71,47505068.99999999
346,95839199.99999984
993,135564839.99999989
1017,135564839.99999989
1497,270767245.31985327
1533,28597212.921243654
1557,28597212.921243654
2228,8524933.242025068
2366,2992019.7259108417
4122,21238961.491373555
4134,16558865.632980608
4171,3545058.6301972989
4231,239178012.67269878
4244,40418.820254973776
4355,0.0
4480,48583.431130326186
2,2, 1, 2, 0,20, 0.00,60.00,Friday
11,363831261.31403389
47,171942668.99999974
71,47505068.99999999
346,124437599.9999998
993,164163239.99999974
1017,164163239.99999974
1497,269053830.84462019
1533,0.0
1557,0.0
2228,6774936.386594474
2366,2488934.658249071
4122,20821602.493172409
4134,16417348.380502349
4171,3545058.6301972989
4231,266564896.1863711
4244,48985.87187346068
4355,0.0
4480,79827.56239380402
2,2, 1, 2, 0,21, 0.00,60.00,Friday
11,378154652.7720887
47,180270629.9999997
71,41533829.999999988
346,138736799.9999998
993,169616699.99999974
1017,169616699.99999974
1497,295988087.15207359
1533,0.0
1557,0.0
2228,7194752.959145856
2366,2487280.054968718
4122,20899353.40957561
4134,16377583.429120392
4171,3545058.6301972989
4231,293500807.0971048
4244,55107.241229797364
4355,0.0
4480,118109.16213775701
2,2, 1, 2, 0,22, 0.00,60.00,Friday
11,296114948.71216157
47,143777915.9999998
71,19340315.999999998
346,124437599.9999998
993,132085079.9999998
1017,132085079.9999998
1497,148768987.51457275
1533,0.0
1557,0.0
2228,4631336.418460911
2366,2007091.748536187
4122,15571787.713442408
4134,10346301.769593303
4171,3545058.6301972989
4231,146761895.7660365
4244,18468.754451960274
4355,0.0
4480,30359.825806533325
2,2, 1, 2, 0,23, 0.00,60.00,Friday
11,204031741.88362826
47,96788438.99999984
71,5971238.999999999
346,90817199.99999984
993,90768869.99999985
1017,90768869.99999985
1497,117010414.61299935
1533,0.0
1557,0.0
2228,2529879.4032501329
2366,1348737.7455006028
4122,13891360.3997906
4134,10346301.769593303
4171,3545058.6301972989
4231,115661676.86749876
4244,20708.1101874113
4355,0.0
4480,32484.97040030241
2,2, 1, 2, 0,24, 0.00,60.00,Friday
11,115639254.19576539
47,52754678.99999992
71,4835078.999999999
346,47919599.99999992
993,47320469.999999929
1017,47320469.999999929
1497,127202346.98649812
1533,0.0
1557,0.0
2228,1614222.5448801323
2366,1314113.6729076477
4122,13891360.3997906
4134,10346301.769593303
4171,3545058.6301972989
4231,125888233.31359045
4244,22539.076705094198
4355,0.0
4480,35983.174389597356
2,3, 1, 3, 0, 1, 0.00,60.00,Saturday
11,57450732.28743583
47,24156278.99999996
71,4835078.999999999
346,19321199.999999968
993,18722069.99999997
1017,18722069.99999997
1497,2659777.515685947
1533,0.0
1557,0.0
2228,2485372.3603025146
2366,1334603.4990615287
4122,12087010.927133343
4134,8488078.333418433
4171,3545058.6301972989
4231,1325174.0166244184
4244,0.0
4355,0.0
4480,0.0
2,3, 1, 3, 0, 2, 0.00,60.00,Saturday
11,58207880.85318434
47,24156278.99999996
71,4835078.999999999
346,19321199.999999968
993,18722069.99999997
1017,18722069.99999997
1497,22707404.79360479
1533,0.0
1557,0.0
2228,2463548.9094413209
2366,1327565.3628398684
4122,12865982.943743049
4134,8488078.333418433
4171,3545058.6301972989
4231,21379839.430764926
4244,0.0
4355,0.0
4480,0.0
2,3, 1, 3, 0, 3, 0.00,60.00,Saturday
11,59435502.13109876
47,24156278.99999996
71,4835078.999999999
346,19321199.999999968
993,18722069.99999997
1017,18722069.99999997
1497,76486651.38906104
1533,0.0
1557,0.0
2228,1614107.269626719
2366,1081844.8835813697
4122,14943045.861472067
4134,8488078.333418433
4171,3545058.6301972989
4231,75404806.50547967
4244,0.0
4355,0.0
4480,0.0
2,3, 1, 3, 0, 4, 0.00,60.00,Saturday
11,60279283.41825305
47,24156278.99999996
71,4835078.999999999
346,19321199.999999968
993,18722069.99999997
1017,18722069.99999997
1497,118351196.59229878
1533,0.0
1557,0.0
2228,793412.5969593102
2366,1270276.3380322932
4122,16607521.821293764
4134,8488078.333418433
4171,3545058.6301972989
4231,117080920.25426647
4244,0.0
4355,0.0
4480,0.0
2,3, 1, 3, 0, 5, 0.00,60.00,Saturday
11,63219123.321142997
47,24156278.99999996
71,4835078.999999999
346,19321199.999999968
993,18722069.99999997
1017,18722069.99999997
1497,173792910.23603565
1533,0.0
1557,0.0
2228,1587028.9767858759
2366,1040456.4088221071
4122,18753745.34435716
4134,8488078.333418433
4171,3545058.6301972989
4231,172752453.82721354
4244,0.0
4355,0.0
4480,0.0
2,3, 1, 3, 0, 6, 0.00,60.00,Saturday
11,128238346.06495601
47,52754678.99999992
71,4835078.999999999
346,47919599.99999992
993,47320469.999999929
1017,47320469.999999929
1497,413564821.850012
1533,0.0
1557,0.0
2228,1587058.189614889
2366,1309493.4280763977
4122,25762302.880921097
4134,15943012.732622657
4171,3545058.6301972989
4231,412255328.42193558
4244,50980.657838837855
4355,0.0
4480,762855.3365811881
2,3, 1, 3, 0, 7, 0.00,60.00,Saturday
11,211891481.2120493
47,80361638.99999988
71,5971238.999999999
346,74390399.99999988
993,69320069.9999999
1017,69320069.9999999
1497,1512776759.0059982
1533,28597212.921243654
1557,28597212.921243654
2228,1600396.9260044357
2366,1050592.1567985672
4122,58623788.759447049
4134,22562690.36003358
4171,3545058.6301972989
4231,1483128953.9279557
4244,144094.90087492084
4355,0.0
4480,1841491.6257230223
2,3, 1, 3, 0, 8, 0.00,60.00,Saturday
11,204447550.2987695
47,83917034.58396411
71,9526634.583964235
346,74390399.99999988
993,73192139.99999988
1017,73192139.99999988
1497,1142186662.5699185
1533,28597212.921243654
1557,28597212.921243654
2228,3598469.859904588
2366,1988304.6154457057
4122,42159706.87065378
4134,16719195.93042501
4171,3545058.6301972989
4231,1111601145.033229
4244,127004.97322565287
4355,0.0
4480,1453194.0110214304
2,3, 1, 3, 0, 9, 0.00,60.00,Saturday
11,234084245.22156269
47,100737191.11657374
71,26346791.116573857
346,74390399.99999988
993,90883619.99999987
1017,90883619.99999987
1497,877145458.5697668
1533,285108.16507584266
1557,285108.16507584266
2228,5482110.067502436
2366,2053374.8081176067
4122,35560938.49208002
4134,16408986.761743954
4171,3545058.6301972989
4231,874806975.5965732
4244,108420.08363292975
4355,0.0
4480,1311965.4617735788
2,3, 1, 3, 0,10, 0.00,60.00,Saturday
11,268223557.22083295
47,118058535.94033508
71,43668135.9403352
346,74390399.99999988
993,114116039.99999988
1017,114116039.99999988
1497,655471025.5277615
1533,285108.16507584266
1557,285108.16507584266
2228,4959534.467602276
2366,2355861.385881154
4122,30347025.804121276
4134,16419447.945664442
4171,3545058.6301972989
4231,652830055.9768045
4244,84838.50681767884
4355,0.0
4480,657582.5019566761
2,3, 1, 3, 0,11, 0.00,60.00,Saturday
11,269820510.9513817
47,116767751.04267642
71,63826151.042676437
346,52941599.9999999
993,115899659.99999997
1017,115899659.99999997
1497,527296034.68562337
1533,513194.69713651677
1557,513194.69713651677
2228,9120465.476044279
2366,2874474.2664197536
4122,27656326.63822887
4134,16498382.711489814
4171,3545058.6301972989
4231,523908365.7220671
4244,69161.03517666758
4355,0.0
4480,307146.7592555981
2,3, 1, 3, 0,12, 0.00,60.00,Saturday
11,268291394.91239206
47,116713736.47298664
71,63772136.47298667
346,52941599.9999999
993,115899659.99999997
1017,115899659.99999997
1497,402014609.9288653
1533,11952079.865633984
1557,11952079.865633984
2228,10675174.172220793
2366,3456270.441082235
4122,24820795.77757377
4134,16711225.393330293
4171,3545058.6301972989
4231,386606259.6221491
4244,54502.46508042666
4355,0.0
4480,127526.02453045151
2,3, 1, 3, 0,13, 0.00,60.00,Saturday
11,262550958.92323108
47,113321808.11711709
71,60380208.11711711
346,52941599.9999999
993,114247259.99999997
1017,114247259.99999997
1497,283141793.6522747
1533,11952079.865633984
1557,11952079.865633984
2228,12252131.805037784
2366,3723351.336294186
4122,22637069.941416269
4134,16861573.310981353
4171,3545058.6301972989
4231,267466362.4503466
4244,40049.04599966513
4355,0.0
4480,52640.01366028693
2,3, 1, 3, 0,14, 0.00,60.00,Saturday
11,262346272.91531689
47,113261004.66119606
71,60319404.66119607
346,52941599.9999999
993,114247259.99999997
1017,114247259.99999997
1497,175119798.03750817
1533,513194.69713651677
1557,513194.69713651677
2228,12351936.889448263
2366,3738637.4066112164
4122,21833393.640721755
4134,17292936.70469583
4171,3545058.6301972989
4231,170867965.9337604
4244,26478.830103526623
4355,594512.8876331057
4480,31686.006214194345
2,3, 1, 3, 0,15, 0.00,60.00,Saturday
11,261379058.02558027
47,113156100.2867718
71,60214500.28677181
346,52941599.9999999
993,114247259.99999997
1017,114247259.99999997
1497,113568647.22507209
1533,427662.2476137639
1557,427662.2476137639
2228,9963705.039063609
2366,3153542.8546789509
4122,22274879.329747805
4134,18055470.709727128
4171,3545058.6301972989
4231,109987442.12277937
4244,17819.52768458827
4355,1689794.5699167785
4480,29499.272395742977
2,3, 1, 3, 0,16, 0.00,60.00,Saturday
11,261332383.1142132
47,113473362.42421754
71,60531762.42421755
346,52941599.9999999
993,114247259.99999997
1017,114247259.99999997
1497,72082121.90773645
1533,427662.2476137639
1557,427662.2476137639
2228,9832495.341303805
2366,3156116.479119716
4122,22530107.712718388
4134,18570441.897509438
4171,3545058.6301972989
4231,68498343.18100296
4244,11294.002464493764
4355,1206614.4178799296
4480,31249.21562908344
2,3, 1, 3, 0,17, 0.00,60.00,Saturday
11,265052084.93979515
47,118515482.54716203
71,65573882.547162059
346,52941599.9999999
993,114247259.99999997
1017,114247259.99999997
1497,93893335.81923157
1533,29024875.168857416
1557,29024875.168857416
2228,9705829.742678754
2366,3144292.4359928129
4122,22492034.791148299
4134,18812515.551196588
4171,3545058.6301972989
4231,61724168.21438135
4244,10369.26797543406
4355,49472.03498437781
4480,31636.555846255837
2,3, 1, 3, 0,18, 0.00,60.00,Saturday
11,256576392.9719115
47,111937382.99999996
71,64017782.99999998
346,47919599.99999992
993,113145659.99999997
1017,113145659.99999997
1497,137589414.30254824
1533,28597212.921243654
1557,28597212.921243654
2228,9578466.914633416
2366,2750336.5600284675
4122,21867898.82287281
4134,18014562.780676567
4171,3545058.6301972989
4231,106241864.82127612
4244,17311.718705843374
4355,0.0
4480,29672.515699496395
2,3, 1, 3, 0,19, 0.00,60.00,Saturday
11,282474227.2781701
47,128942549.99999987
71,38125349.999999988
346,90817199.99999984
993,125066699.99999988
1017,125066699.99999988
1497,190178738.70001034
1533,28597212.921243654
1557,28597212.921243654
2228,8457545.379376574
2366,2814619.08233538
4122,19946866.172842947
4134,16384224.27006229
4171,3545058.6301972989
4231,158766906.6964313
4244,28836.60130896757
4355,0.0
4480,31729.124641776943
2,3, 1, 3, 0,20, 0.00,60.00,Saturday
11,306304235.63839718
47,142745273.9999998
71,23329673.999999994
346,119415599.9999998
993,138176819.9999998
1017,138176819.9999998
1497,145154424.54253329
1533,0.0
1557,0.0
2228,7254164.567648692
2366,2466670.9771120708
4122,18070571.138341048
4134,14519359.992945523
4171,3545058.6301972989
4231,142687753.56542123
4244,25669.574125353436
4355,0.0
4480,31736.358282358382
2,3, 1, 3, 0,21, 0.00,60.00,Saturday
11,333872240.890832
47,157044473.99999977
71,23329673.999999994
346,133714799.99999979
993,152476019.99999977
1017,152476019.99999977
1497,202112188.12677125
1533,0.0
1557,0.0
2228,6159490.296366435
2366,2070915.8292261882
4122,18102680.629512058
4134,14519359.992945523
4171,3545058.6301972989
4231,200041272.29754503
4244,38042.80924282987
4355,0.0
4480,51533.155710944906
2,3, 1, 3, 0,22, 0.00,60.00,Saturday
11,273502328.48251309