Program Version,EnergyPlus, Version 9.0.1-bb7ca4f0da, YMD=2019.12.18 15:25
1,5,Environment Title[],Latitude[deg],Longitude[deg],Time Zone[],Elevation[m]
2,8,Day of Simulation[],Month[],Day of Month[],DST Indicator[1=yes 0=no],Hour[],StartMinute[],EndMinute[],DayType
3,5,Cumulative Day of Simulation[],Month[],Day of Month[],DST Indicator[1=yes 0=no],DayType  ! When Daily Meters Requested
4,2,Cumulative Days of Simulation[],Month[]  ! When Monthly Meters Requested
5,1,Cumulative Days of Simulation[] ! When Run Period Meters Requested
6,1,Calendar Year of Simulation[] ! When Annual Meters Requested
992,1,InteriorEquipment:Electricity [J] !Hourly
46,1,InteriorLights:Electricity [J] !Hourly
2227,1,WaterSystems:Electricity [J] !Hourly
2365,1,WaterSystems:Gas [J] !Hourly
10,1,Electricity:Facility [J] !Hourly
4354,1,Cooling:Electricity [J] !Hourly
4121,1,Fans:Electricity [J] !Hourly
4480,1,Pumps:Electricity [J] !Hourly
4243,1,Heating:Electricity [J] !Hourly
1556,1,Receptacle:InteriorEquipment:Gas [J] !Hourly
1016,1,Receptacle:InteriorEquipment:Electricity [J] !Hourly
1496,1,Gas:Facility [J] !Hourly
1532,1,InteriorEquipment:Gas [J] !Hourly
4230,1,Heating:Gas [J] !Hourly
345,1,NonComplianceLtg:InteriorLights:Electricity [J] !Hourly
70,1,ComplianceLtg:InteriorLights:Electricity [J] !Hourly
4133,1,General:Fans:Electricity [J] !Hourly
4170,1,ProcessMotors:Fans:Electricity [J] !Hourly
End of Data Dictionary
1,ARCATA-AIRPORT ANN CLG 0.4% CONDNS DB=>MCWB,  40.98,-124.10,  -8.00,  62.00
2,1, 8,21, 0, 1, 0.00,60.00,SummerDesignDay
10,602631736.1794155
46,249737579.99999974
70,96701579.99999997
345,153035999.9999997
992,231449399.99999977
1016,231449399.99999977
1496,64841377.00883618
1532,57764642.17263899
1556,57764642.17263899
2227,20601493.540942916
2365,7076734.836197188
4121,220.8960536268938
4133,40.62877395853289
4170,146.49394504991597
4230,0.0
4243,0.0
4354,100843041.74241887
4480,0.0
2,1, 8,21, 0, 2, 0.00,60.00,SummerDesignDay
10,599030519.3602158
46,249737579.99999974
70,96701579.99999997
345,153035999.9999997
992,231449399.99999977
1016,231449399.99999977
1496,64841499.12025015
1532,57764642.17263899
1556,57764642.17263899
2227,20601356.56412544
2365,7076856.947611167
4121,220.06154738815799
4133,40.63626462971058
4170,146.49394504991597
4230,0.0
4243,0.0
4354,97241962.73454289
4480,0.0
2,1, 8,21, 0, 3, 0.00,60.00,SummerDesignDay
10,596641356.7144939
46,249737579.99999974
70,96701579.99999997
345,153035999.9999997
992,231449399.99999977
1016,231449399.99999977
1496,64841622.93552782
1532,57764642.17263899
1556,57764642.17263899
2227,20601989.068175153
2365,7076980.762888833
4121,219.56888039999024
4133,40.64134784623622
4170,146.49394504991597
4230,0.0
4243,0.0
4354,94852168.07743824
4480,0.0
2,1, 8,21, 0, 4, 0.00,60.00,SummerDesignDay
10,595452845.2543419
46,249737579.99999974
70,96701579.99999997
345,153035999.9999997
992,231449399.99999977
1016,231449399.99999977
1496,64841744.49425025
1532,57764642.17263899
1556,57764642.17263899
2227,21539633.392480919
2365,7077102.321611265
4121,219.14262307160494
4133,40.645008301557
4170,146.49394504991597
4230,0.0
4243,0.0
4354,92726012.71923796
4480,0.0
2,1, 8,21, 0, 5, 0.00,60.00,SummerDesignDay
10,592809552.1806283
46,249737579.99999974
70,96701579.99999997
345,153035999.9999997
992,231449399.99999977
1016,231449399.99999977
1496,64841863.84649883
1532,57764642.17263899
1556,57764642.17263899
2227,20601055.52147465
2365,7077221.673859841
4121,218.79712599512807
4133,40.6477210738243
4170,146.49394504991597
4230,0.0
4243,0.0
4354,91021297.86202759
4480,0.0
2,1, 8,21, 0, 6, 0.00,60.00,SummerDesignDay
10,611143335.4876621
46,249737579.99999974
70,96701579.99999997
345,153035999.9999997
992,231449399.99999977
1016,231449399.99999977
1496,64842213.93028369
1532,57764642.17263899
1556,57764642.17263899
2227,20601683.30981271
2365,7077571.757644701
4121,224.9347101865415
4133,45.84749391530359
4170,146.49394504991597
4230,0.0
4243,0.0
4354,109354447.24313934
4480,0.0
2,1, 8,21, 0, 7, 0.00,60.00,SummerDesignDay
10,672591554.35926
46,249737579.99999974
70,96701579.99999997
345,153035999.9999997
992,231449399.99999977
1016,231449399.99999977
1496,65738187.98268055
1532,57764642.17263899
1556,57764642.17263899
2227,20738145.40070905
2365,7077717.86359036
4121,254.08196646930015
4133,65.6482331910858
4170,146.49394504991597
4230,895827.9464511999
4243,0.0
4354,170666174.8765846
4480,0.0
2,1, 8,21, 0, 8, 0.00,60.00,SummerDesignDay
10,683954173.6636599
46,249737579.99999974
70,96701579.99999997
345,153035999.9999997
992,231449399.99999977
1016,231449399.99999977
1496,64842205.030139189
1532,57764642.17263899
1556,57764642.17263899
2227,21403938.62802705
2365,7077562.857500193
4121,254.17003644610925
4133,56.126559861486828
4170,146.49394504991597
4230,0.0
4243,0.0
4354,181363000.86559636
4480,0.0
2,1, 8,21, 0, 9, 0.00,60.00,SummerDesignDay
10,701700774.509352
46,249737579.99999974
70,96701579.99999997
345,153035999.9999997
992,231449399.99999977
1016,231449399.99999977
1496,64842316.103436868
1532,57764642.17263899
1556,57764642.17263899
2227,20601118.57838522
2365,7077673.930797874
4121,261.2592080289393
4133,55.47817994123242
4170,146.49394504991597
4230,0.0
4243,0.0
4354,199912414.67175875
4480,0.0
2,1, 8,21, 0,10, 0.00,60.00,SummerDesignDay
10,720229798.3254244
46,249737579.99999974
70,96701579.99999997
345,153035999.9999997
992,231449399.99999977
1016,231449399.99999977
1496,64842425.19904876
1532,57764642.17263899
1556,57764642.17263899
2227,20601793.49556341
2365,7077783.026409766
4121,268.3020328707499
4133,56.16331007644261
4170,146.49394504991597
4230,0.0
4243,0.0
4354,218440756.52782805
4480,0.0
2,1, 8,21, 0,11, 0.00,60.00,SummerDesignDay
10,732140799.0675584
46,249737579.99999974
70,96701579.99999997
345,153035999.9999997
992,231449399.99999977
1016,231449399.99999977
1496,64842532.35939501
1532,57764642.17263899
1556,57764642.17263899
2227,21039985.694903453
2365,7077890.186756021
4121,271.56808644416489
4133,56.582843943559669
4170,146.49394504991597
4230,0.0
4243,0.0
4354,229913561.80456854
4480,0.0
2,1, 8,21, 0,12, 0.00,60.00,SummerDesignDay
10,737966667.5668765
46,249737579.99999974
70,96701579.99999997
345,153035999.9999997
992,231449399.99999977
1016,231449399.99999977
1496,64842637.62575824
1532,57764642.17263899
1556,57764642.17263899
2227,21101123.1557418
2365,7077995.453119246
4121,272.3057200647853
4133,56.739644526463809
4170,146.49394504991597
4230,0.0
4243,0.0
4354,235678292.1054147
4480,0.0
2,1, 8,21, 0,13, 0.00,60.00,SummerDesignDay
10,742758795.1812005
46,249737579.99999974
70,96701579.99999997
345,153035999.9999997
992,231449399.99999977
1016,231449399.99999977
1496,64842741.038321409
1532,57764642.17263899
1556,57764642.17263899
2227,20601423.769908538
2365,7078098.8656824179
4121,273.3764378812093
4133,56.867595037649568
4170,146.49394504991597
4230,0.0
4243,0.0
4354,240970118.0348542
4480,0.0
2,1, 8,21, 0,14, 0.00,60.00,SummerDesignDay
10,749360125.5515535
46,249737579.99999974
70,96701579.99999997
345,153035999.9999997
992,231449399.99999977
1016,231449399.99999977
1496,65009313.53177628
1532,57764642.17263899
1556,57764642.17263899
2227,20601669.892563099
2365,7078200.463565101
4121,275.76664320544639
4133,57.248213839703257
4170,146.49394504991597
4230,166470.89557217866
4243,0.0
4354,247571199.89234723
4480,0.0
2,1, 8,21, 0,15, 0.00,60.00,SummerDesignDay
10,759305168.9935119
46,249737579.99999974
70,96701579.99999997
345,153035999.9999997
992,231449399.99999977
1016,231449399.99999977
1496,65142383.01162878
1532,57764642.17263899
1556,57764642.17263899
2227,21342633.945182105
2365,7078300.284858424
4121,280.75876959542486
4133,58.25823426281757
4170,146.49394504991597
4230,299440.5541313611
4243,0.0
4354,256775274.28956018
4480,0.0
2,1, 8,21, 0,16, 0.00,60.00,SummerDesignDay
10,762009811.0208628
46,249737579.99999974
70,96701579.99999997
345,153035999.9999997
992,231449399.99999977
1016,231449399.99999977
1496,65221806.751676928
1532,57764642.17263899
1556,57764642.17263899
2227,20798413.57985033
2365,7078398.366658496
4121,283.7732881607775
4133,59.00490387888108
4170,146.49394504991597
4230,378766.21237943906
4243,0.0
4354,260024133.66772429
4480,0.0
2,1, 8,21, 0,17, 0.00,60.00,SummerDesignDay
10,754705021.6817242
46,249737579.99999974
70,96701579.99999997
345,153035999.9999997
992,231449399.99999977
1016,231449399.99999977
1496,65314570.507830519
1532,57764642.17263899
1556,57764642.17263899
2227,20601376.55517011
2365,7078494.745098636
4121,281.48947797959388
4133,58.6814703798486
4170,146.49394504991597
4230,471433.590092891
4243,0.0
4354,252916383.63707627
4480,0.0
2,1, 8,21, 0,18, 0.00,60.00,SummerDesignDay
10,743699756.142391
46,249737579.99999974
70,96701579.99999997
345,153035999.9999997
992,231449399.99999977
1016,231449399.99999977
1496,65424139.92615346
1532,57764642.17263899
1556,57764642.17263899
2227,20601784.33054748
2365,7078589.45538033
4121,277.22214199461237
4133,57.79582258194579
4170,146.49394504991597
4230,580908.2981341343
4243,0.0
4354,241910714.58970175
4480,0.0
2,1, 8,21, 0,19, 0.00,60.00,SummerDesignDay
10,718510584.677006
46,249737579.99999974
70,96701579.99999997
345,153035999.9999997
992,231449399.99999977
1016,231449399.99999977
1496,65576290.79402822
1532,57764642.17263899
1556,57764642.17263899
2227,21539808.236357389
2365,7078682.531802967
4121,264.8508125588653
4133,55.35227371051623
4170,146.49394504991597
4230,732966.0895862652
4243,0.0
4354,215783531.58983613
4480,0.0
2,1, 8,21, 0,20, 0.00,60.00,SummerDesignDay
10,687484168.873847
46,249737579.99999974
70,96701579.99999997
345,153035999.9999997
992,231449399.99999977
1016,231449399.99999977
1496,65747657.379529397
1532,57764642.17263899
1556,57764642.17263899
2227,20601141.80342623
2365,7078774.007792434
4121,250.1340839974236
4133,52.76382608043684
4170,146.49394504991597
4230,904241.1990979714
4243,0.0
4354,185695796.93633694
4480,0.0
2,1, 8,21, 0,21, 0.00,60.00,SummerDesignDay
10,670099631.3168184
46,249737579.99999974
70,96701579.99999997
345,153035999.9999997
992,231449399.99999977
1016,231449399.99999977
1496,65893063.63088903
1532,57764642.17263899
1556,57764642.17263899
2227,20601387.548871075
2365,7078863.915928666
4121,242.2060290993104
4133,51.08912973234802
4170,146.49394504991597
4230,1049557.542321371
4243,0.0
4354,168311021.5619182
4480,0.0
2,1, 8,21, 0,22, 0.00,60.00,SummerDesignDay
10,636035706.8789522
46,249737579.99999974
70,96701579.99999997
345,153035999.9999997
992,231449399.99999977
1016,231449399.99999977
1496,64842927.31339209
1532,57764642.17263899
1556,57764642.17263899
2227,20602303.34635005
2365,7078285.140753101
4121,230.59384045482893
4133,43.574615408190819
4170,146.49394504991597
4230,0.0
4243,0.0
4354,134246192.93876157
4480,0.0
2,1, 8,21, 0,23, 0.00,60.00,SummerDesignDay
10,628092057.1150394
46,249737579.99999974
70,96701579.99999997
345,153035999.9999997
992,231449399.99999977
1016,231449399.99999977
1496,64843491.3148042
1532,57764642.17263899
1556,57764642.17263899
2227,21541124.32732478
2365,7078849.142165208
4121,227.42656306635775
4133,43.314409611234129
4170,146.49394504991597
4230,0.0
4243,0.0
4354,125363725.36115146
4480,0.0
2,1, 8,21, 0,24, 0.00,60.00,SummerDesignDay
10,620038691.5420677
46,249737579.99999974
70,96701579.99999997
345,153035999.9999997
992,231449399.99999977
1016,231449399.99999977
1496,64848179.68222771
1532,57764642.17263899
1556,57764642.17263899
2227,20601050.351249655
2365,7083537.50958872
4121,225.0716652257745
4133,43.136088450816988
4170,146.49394504991597
4230,0.0
4243,0.0
4354,118250436.11915294
4480,0.0
1,ARCATA-AIRPORT ANN CLG 0.4% CONDNS DP=>MCDB,  40.98,-124.10,  -8.00,  62.00
2,1, 8,21, 0, 1, 0.00,60.00,SummerDesignDay
10,545299337.5970854
46,249737579.99999974
70,96701579.99999997
345,153035999.9999997
992,231449399.99999977
1016,231449399.99999977
1496,64841377.00883618
1532,57764642.17263899
1556,57764642.17263899
2227,20601493.540942916
2365,7076734.836197188
4121,209.22058136373102
4133,40.617789379160928
4170,146.49394504991597
4230,0.0
4243,0.0
4354,43510654.8355609
4480,0.0
2,1, 8,21, 0, 2, 0.00,60.00,SummerDesignDay
10,539074979.8850521
46,249737579.99999974
70,96701579.99999997
345,153035999.9999997
992,231449399.99999977
1016,231449399.99999977
1496,64841499.12025015
1532,57764642.17263899
1556,57764642.17263899
2227,20601356.56412544
2365,7076856.947611167
4121,207.92910708091797
4133,40.62430870370133
4170,146.49394504991597
4230,0.0
4243,0.0
4354,37286435.39181952
4480,0.0
2,1, 8,21, 0, 3, 0.00,60.00,SummerDesignDay
10,536320892.3833101
46,249737579.99999974
70,96701579.99999997
345,153035999.9999997
992,231449399.99999977
1016,231449399.99999977
1496,65826987.24482247
1532,57764642.17263899
1556,57764642.17263899
2227,20601989.068175153
2365,7076980.762888833
4121,207.05393156625926
4133,40.62864843662936
4170,146.49394504991597
4230,985364.309294647
4243,0.0
4354,34531716.26120323
4480,0.0
2,1, 8,21, 0, 4, 0.00,60.00,SummerDesignDay
10,535921365.3172736
46,249737579.99999974
70,96701579.99999997
345,153035999.9999997
992,231449399.99999977
1016,231449399.99999977
1496,69663994.69425848
1532,57764642.17263899
1556,57764642.17263899
2227,21539633.392480919
2365,7077102.321611265
4121,206.31502902546814
4133,40.631703826008607
4170,146.49394504991597
4230,4822250.200008219
4243,0.0
4354,33194545.609763665
4480,0.0
2,1, 8,21, 0, 5, 0.00,60.00,SummerDesignDay
10,533886066.04517379
46,249737579.99999974
70,96701579.99999997
345,153035999.9999997
992,231449399.99999977
1016,231449399.99999977
1496,73040442.93938124
1532,57764642.17263899
1556,57764642.17263899
2227,20601055.52147465
2365,7077221.673859841
4121,205.71048463649874
4133,40.633581248155
4170,146.49394504991597
4230,8198579.092882419
4243,0.0
4354,32097824.81321449
4480,0.0
2,1, 8,21, 0, 6, 0.00,60.00,SummerDesignDay
10,550539788.3350633
46,249737579.99999974
70,96701579.99999997
345,153035999.9999997
992,231449399.99999977
1016,231449399.99999977
1496,71597915.6422466
1532,57764642.17263899
1556,57764642.17263899
2227,20601683.30981271
2365,7077571.757644701
4121,210.48632788418235
4133,44.56030689676504
4170,146.49394504991597
4230,6755701.71196292
4243,0.0
4354,48750914.53892258
4480,0.0
2,1, 8,21, 0, 7, 0.00,60.00,SummerDesignDay
10,611564568.7214103
46,249737579.99999974
70,96701579.99999997
345,153035999.9999997
992,231449399.99999977
1016,231449399.99999977
1496,68337669.94512488
1532,57764642.17263899
1556,57764642.17263899
2227,20738145.40070905
2365,7077717.86359036
4121,233.89013817095515
4133,58.34961109360485
4170,146.49394504991597
4230,3495309.9088955388
4243,0.0
4354,109639209.43056299
4480,0.0
2,1, 8,21, 0, 8, 0.00,60.00,SummerDesignDay
10,628840416.9029209
46,249737579.99999974
70,96701579.99999997
345,153035999.9999997
992,231449399.99999977
1016,231449399.99999977
1496,65094255.49425289
1532,57764642.17263899
1556,57764642.17263899
2227,21403938.62802705
2365,7077562.857500193
4121,238.50840903729316
4133,52.08932496431375
4170,146.49394504991597
4230,252050.46411370359
4243,0.0
4354,126249259.76648471
4480,0.0
2,1, 8,21, 0, 9, 0.00,60.00,SummerDesignDay
10,654412381.1340925
46,249737579.99999974
70,96701579.99999997
345,153035999.9999997
992,231449399.99999977
1016,231449399.99999977
1496,64842316.103436868
1532,57764642.17263899
1556,57764642.17263899
2227,20601118.57838522
2365,7077673.930797874
4121,248.2315056010013
4133,52.29680778163001
4170,146.49394504991597
4230,0.0
4243,0.0
4354,152624034.3242017
4480,0.0
2,1, 8,21, 0,10, 0.00,60.00,SummerDesignDay
10,681494190.3763571
46,249737579.99999974
70,96701579.99999997
345,153035999.9999997
992,231449399.99999977
1016,231449399.99999977
1496,64842425.19904876
1532,57764642.17263899
1556,57764642.17263899
2227,20601793.49556341
2365,7077783.026409766
4121,257.68714389666698
4133,53.41071325290059
4170,146.49394504991597
4230,0.0
4243,0.0
4354,179705159.19364969
4480,0.0
2,1, 8,21, 0,11, 0.00,60.00,SummerDesignDay
10,700342894.4367504
46,249737579.99999974
70,96701579.99999997
345,153035999.9999997
992,231449399.99999977
1016,231449399.99999977
1496,64842532.35939501
1532,57764642.17263899
1556,57764642.17263899
2227,21039985.694903453
2365,7077890.186756021
4121,263.0796806500524
4133,54.189735278126438
4170,146.49394504991597
4230,0.0
4243,0.0
4354,198115665.66216634
4480,0.0
2,1, 8,21, 0,12, 0.00,60.00,SummerDesignDay
10,709048237.2215724
46,249737579.99999974
70,96701579.99999997
345,153035999.9999997
992,231449399.99999977
1016,231449399.99999977
1496,64876650.36762117
1532,57764642.17263899
1556,57764642.17263899
2227,21101123.1557418
2365,7077995.453119246
4121,265.25508419660488
4133,54.64215617839409
4170,146.49394504991597
4230,34012.7418629279
4243,0.0
4354,206759868.81074656
4480,0.0
2,1, 8,21, 0,13, 0.00,60.00,SummerDesignDay
10,714877218.4573188
46,249737579.99999974
70,96701579.99999997
345,153035999.9999997
992,231449399.99999977
1016,231449399.99999977
1496,65334841.65190402
1532,57764642.17263899
1556,57764642.17263899
2227,20601423.769908538
2365,7078098.8656824179
4121,267.0460909857711
4133,54.96302521987096
4170,146.49394504991597
4230,492100.61358261588
4243,0.0
4354,213088547.64131923
4480,0.0
2,1, 8,21, 0,14, 0.00,60.00,SummerDesignDay
10,721863407.379567
46,249737579.99999974
70,96701579.99999997
345,153035999.9999997
992,231449399.99999977
1016,231449399.99999977
1496,65759087.35939587
1532,57764642.17263899
1556,57764642.17263899
2227,20601669.892563099
2365,7078200.463565101
4121,269.7700036682708
4133,55.43025868755644
4170,146.49394504991597
4230,916244.7231917797
4243,0.0
4354,220074487.71700035
4480,0.0
2,1, 8,21, 0,15, 0.00,60.00,SummerDesignDay
10,732671839.2218983
46,249737579.99999974
70,96701579.99999997
345,153035999.9999997
992,231449399.99999977
1016,231449399.99999977
1496,65980937.295348178
1532,57764642.17263899
1556,57764642.17263899
2227,21342633.945182105
2365,7078300.284858424
4121,275.2464442554299
4133,56.49138439973245
4170,146.49394504991597
4230,1137994.8378507596
4243,0.0
4354,230141950.03027196
4480,0.0
2,1, 8,21, 0,16, 0.00,60.00,SummerDesignDay
10,735970805.4541254
46,249737579.99999974
70,96701579.99999997
345,153035999.9999997
992,231449399.99999977
1016,231449399.99999977
1496,66121475.65002279
1532,57764642.17263899
1556,57764642.17263899
2227,20798413.57985033
2365,7078398.366658496
4121,278.5618039284982
4133,57.30231604373827
4170,146.49394504991597
4230,1278435.110725308
4243,0.0
4354,233985133.31247134
4480,0.0
2,1, 8,21, 0,17, 0.00,60.00,SummerDesignDay
10,728437080.6914109
46,249737579.99999974
70,96701579.99999997
345,153035999.9999997
992,231449399.99999977
1016,231449399.99999977
1496,66284300.59140603
1532,57764642.17263899
1556,57764642.17263899
2227,20601376.55517011
2365,7078494.745098636
4121,276.0592181318306
4133,57.02177829889557
4170,146.49394504991597
4230,1441163.6736684088
4243,0.0
4354,226648448.0770225
4480,0.0
2,1, 8,21, 0,18, 0.00,60.00,SummerDesignDay
10,716431747.5336249
46,249737579.99999974
70,96701579.99999997
345,153035999.9999997
992,231449399.99999977
1016,231449399.99999977
1496,66466591.39132641
1532,57764642.17263899
1556,57764642.17263899
2227,20601784.33054748
2365,7078589.45538033
4121,271.1346822651731
4133,56.1089510706813
4170,146.49394504991597
4230,1623359.7633070932
4243,0.0
4354,214642712.06839515
4480,0.0
2,1, 8,21, 0,19, 0.00,60.00,SummerDesignDay
10,688279799.0448849
46,249737579.99999974
70,96701579.99999997
345,153035999.9999997
992,231449399.99999977
1016,231449399.99999977
1496,66713712.205792907
1532,57764642.17263899
1556,57764642.17263899
2227,21539808.236357389
2365,7078682.531802967
4121,257.51357688032979
4133,53.6565049402661
4170,146.49394504991597
4230,1870387.5013509487
4243,0.0
4354,185552753.29495067
4480,0.0
2,1, 8,21, 0,20, 0.00,60.00,SummerDesignDay
10,650981976.8490138
46,249737579.99999974
70,96701579.99999997
345,153035999.9999997
992,231449399.99999977
1016,231449399.99999977
1496,67005817.07758334
1532,57764642.17263899
1556,57764642.17263899
2227,20601141.80342623
2365,7078774.007792434
4121,241.05752746877858
4133,51.026407506191649
4170,146.49394504991597
4230,2162400.8971519207
4243,0.0
4354,149193613.98806025
4480,0.0
2,1, 8,21, 0,21, 0.00,60.00,SummerDesignDay
10,627725740.7422654
46,249737579.99999974
70,96701579.99999997
345,153035999.9999997
992,231449399.99999977
1016,231449399.99999977
1496,67244379.52819683
1532,57764642.17263899
1556,57764642.17263899
2227,20601387.548871075
2365,7078863.915928666
4121,231.6513268750728
4133,49.2610586348129
4170,146.49394504991597
4230,2400873.4396291698
4243,0.0
4354,125937141.54206728
4480,0.0
2,1, 8,21, 0,22, 0.00,60.00,SummerDesignDay
10,588196148.14571
46,249737579.99999974
70,96701579.99999997
345,153035999.9999997
992,231449399.99999977
1016,231449399.99999977
1496,64843112.67417896
1532,57764642.17263899
1556,57764642.17263899
2227,20602185.056106476
2365,7078470.501539965
4121,220.41551744838714
4133,43.14901444055996
4170,146.49394504991597
4230,0.0
4243,0.0
4354,86406762.67408605
4480,0.0
2,1, 8,21, 0,23, 0.00,60.00,SummerDesignDay
10,576762885.0107712
46,249737579.99999974
70,96701579.99999997
345,153035999.9999997
992,231449399.99999977
1016,231449399.99999977
1496,64843695.397154148
1532,57764642.17263899
1556,57764642.17263899
2227,21540242.461109714
2365,7079053.224515157
4121,216.47902630753124
4133,42.86286316755343
4170,146.49394504991597
4230,0.0
4243,0.0
4354,74035446.07063513
4480,0.0
2,1, 8,21, 0,24, 0.00,60.00,SummerDesignDay
10,565602558.8866004
46,249737579.99999974
70,96701579.99999997
345,153035999.9999997
992,231449399.99999977
1016,231449399.99999977
1496,64846943.48958209
1532,57764642.17263899
1556,57764642.17263899
2227,20601050.434391839
2365,7082301.3169431029
4121,213.4489395637998
4133,42.66276060550068
4170,146.49394504991597
4230,0.0
4243,0.0
4354,63814315.00326908
4480,0.0
1,ARCATA-AIRPORT ANN HTG 99.6% CONDNS DB,  40.98,-124.10,  -8.00,  62.00
2,1, 1,21, 0, 1, 0.00,60.00,WinterDesignDay
10,72211.25483748412
46,0.0
70,0.0
345,0.0
992,0.0
1016,0.0
1496,565586460.9407004
1532,0.0
1556,0.0
2227,72000.0
2365,579679.1997937226
4121,211.25483748404407
4133,40.55578067911921
4170,146.49394504991597
4230,565006781.7409067
4243,0.0
4354,0.0
4480,0.0
2,1, 1,21, 0, 2, 0.00,60.00,WinterDesignDay
10,72219.4993449492
46,0.0
70,0.0
345,0.0
992,0.0
1016,0.0
1496,644732218.8360751
1532,0.0
1556,0.0
2227,72000.0
2365,833483.936473899
4121,219.49934494914363
4133,40.55578067911922
4170,146.49394504991597
4230,643898734.8996012
4243,0.0
4354,0.0
4480,0.0
2,1, 1,21, 0, 3, 0.00,60.00,WinterDesignDay
10,72225.67484918892
46,0.0
70,0.0
345,0.0
992,0.0
1016,0.0
1496,707821502.6446996
1532,0.0
1556,0.0
2227,72000.0
2365,833372.2904352646
4121,225.67484918885195
4133,40.55578067911922
4170,146.49394504991597
4230,706988130.3542643
4243,0.0
4354,0.0
4480,0.0
2,1, 1,21, 0, 4, 0.00,60.00,WinterDesignDay
10,72230.61382386317
46,0.0
70,0.0
345,0.0
992,0.0
1016,0.0
1496,768646334.4205625
1532,0.0
1556,0.0
2227,72000.0
2365,833413.0588825962
4121,230.61382386312483
4133,40.55578067911922
4170,146.49394504991597
4230,767812921.36168
4243,0.0
4354,0.0
4480,0.0
2,1, 1,21, 0, 5, 0.00,60.00,WinterDesignDay
10,72234.20656985906
46,0.0
70,0.0
345,0.0
992,0.0
1016,0.0
1496,813393483.9740647
1532,0.0
1556,0.0
2227,72000.0
2365,833295.4676707607
4121,234.20656985901358
4133,40.55578067911922
4170,146.49394504991597
4230,812560188.5063942
4243,0.0
4354,0.0
4480,0.0
2,1, 1,21, 0, 6, 0.00,60.00,WinterDesignDay
10,4308340.544630751
46,0.0
70,0.0
345,0.0
992,0.0
1016,0.0
1496,1012046032.492552
1532,0.0
1556,0.0
2227,72000.0
2365,670272.861079026
4121,258.6901814236024
4133,62.73969846515801
4170,146.49394504991597
4230,1011375759.631473
4243,0.0
4354,4236081.854449326
4480,0.0
2,1, 1,21, 0, 7, 0.00,60.00,WinterDesignDay
10,4688357.069737475
46,0.0
70,0.0
345,0.0
992,0.0
1016,0.0
1496,1881923963.7044407
1532,0.0
1556,0.0
2227,72000.0
2365,742901.7442733727
4121,367.8319614398014
4133,98.29263307250842
4170,146.49394504991597
4230,1881181061.9601675
4243,0.0
4354,4615989.2377760349
4480,0.0
2,1, 1,21, 0, 8, 0.00,60.00,WinterDesignDay
10,72299.00750717265
46,0.0
70,0.0
345,0.0
992,0.0
1016,0.0
1496,1612365000.27254
1532,0.0
1556,0.0
2227,72000.0
2365,833457.1569012713
4121,299.00750717257849
4133,43.83567098893832
4170,146.49394504991597
4230,1611531543.1156386
4243,0.0
4354,0.0
4480,0.0
2,1, 1,21, 0, 9, 0.00,60.00,WinterDesignDay
10,72282.60822102224
46,0.0
70,0.0
345,0.0
992,0.0
1016,0.0
1496,1445881098.870325
1532,0.0
1556,0.0
2227,72000.0
2365,833340.0285497645
4121,282.60822102215078
4133,41.68464091801376
4170,146.49394504991597
4230,1445047758.8417755
4243,0.0
4354,0.0
4480,0.0
2,1, 1,21, 0,10, 0.00,60.00,WinterDesignDay
10,72274.66047640685
46,0.0
70,0.0
345,0.0
992,0.0
1016,0.0
1496,1361338570.2478495
1532,0.0
1556,0.0
2227,72000.0
2365,833381.0145762547
4121,274.66047640679337
4133,41.02058224299235
4170,146.49394504991597
4230,1360505189.233273
4243,0.0
4354,0.0
4480,0.0
2,1, 1,21, 0,11, 0.00,60.00,WinterDesignDay
10,72269.9324685582
46,0.0
70,0.0
345,0.0
992,0.0
1016,0.0
1496,1309452689.3889909
1532,0.0
1556,0.0
2227,72000.0
2365,833291.8197655387
4121,269.9324685581204
4133,40.82082255412627
4170,146.49394504991597
4230,1308619397.5692254
4243,0.0
4354,0.0
4480,0.0
2,1, 1,21, 0,12, 0.00,60.00,WinterDesignDay
10,72266.7937097096
46,0.0
70,0.0
345,0.0
992,0.0
1016,0.0
1496,1274721889.9583355
1532,0.0
1556,0.0
2227,72000.0
2365,579602.2208769049
4121,266.7937097095506
4133,40.718867485547068
4170,146.49394504991597
4230,1274142287.7374585
4243,0.0
4354,0.0
4480,0.0
2,1, 1,21, 0,13, 0.00,60.00,WinterDesignDay
10,72264.62414268997
46,0.0
70,0.0
345,0.0
992,0.0
1016,0.0
1496,1251209809.5885387
1532,0.0
1556,0.0
2227,72000.0
2365,833383.752403985
4121,264.6241426898996
4133,40.654249494684879
4170,146.49394504991597
4230,1250376425.8361347
4243,0.0
4354,0.0
4480,0.0
2,1, 1,21, 0,14, 0.00,60.00,WinterDesignDay
10,72263.08950975852
46,0.0
70,0.0
345,0.0
992,0.0
1016,0.0
1496,1234135537.2105227
1532,0.0
1556,0.0
2227,72000.0
2365,833425.1957675015
4121,263.0895097584589
4133,40.612085157026019
4170,146.49394504991597
4230,1233302112.0147553
4243,0.0
4354,0.0
4480,0.0
2,1, 1,21, 0,15, 0.00,60.00,WinterDesignDay
10,72262.0060887436
46,0.0
70,0.0
345,0.0
992,0.0
1016,0.0
1496,1222129151.8805106
1532,0.0
1556,0.0
2227,72000.0
2365,833320.9481604623
4121,262.0060887435398
4133,40.58281302874431
4170,146.49394504991597
4230,1221295830.9323502
4243,0.0
4354,0.0
4480,0.0
2,1, 1,21, 0,16, 0.00,60.00,WinterDesignDay
10,72261.23112662562
46,0.0
70,0.0
345,0.0
992,0.0
1016,0.0
1496,1213273697.7274769
1532,0.0
1556,0.0
2227,72000.0
2365,833348.7353439231
4121,261.2311266255636
4133,40.569344932522039
4170,146.49394504991597
4230,1212440348.9921327
4243,0.0
4354,0.0
4480,0.0
2,1, 1,21, 0,17, 0.00,60.00,WinterDesignDay
10,72260.67076910124
46,0.0
70,0.0
345,0.0
992,0.0
1016,0.0
1496,1206822651.49711
1532,0.0
1556,0.0
2227,72000.0
2365,833388.8992036126
4121,260.6707691011753
4133,40.56343116375177
4170,146.49394504991597
4230,1205989262.5979064
4243,0.0
4354,0.0
4480,0.0
2,1, 1,21, 0,18, 0.00,60.00,WinterDesignDay
10,72260.26339385573
46,0.0
70,0.0
345,0.0
992,0.0
1016,0.0
1496,1201820886.0187562
1532,0.0
1556,0.0
2227,72000.0
2365,579580.7246199141
4121,260.2633938556737
4133,40.5593508485344
4170,146.49394504991597
4230,1201241305.2941364
4243,0.0
4354,0.0
4480,0.0
2,1, 1,21, 0,19, 0.00,60.00,WinterDesignDay
10,72259.97664050036
46,0.0
70,0.0
345,0.0
992,0.0
1016,0.0
1496,1198823915.6363455
1532,0.0
1556,0.0
2227,72000.0
2365,833354.0144757505
4121,259.9766405002947
4133,40.55680757108085
4170,146.49394504991597
4230,1197990561.6218696
4243,0.0
4354,0.0
4480,0.0
2,1, 1,21, 0,20, 0.00,60.00,WinterDesignDay
10,72259.76589563313
46,0.0
70,0.0
345,0.0
992,0.0
1016,0.0
1496,1196305637.4143215
1532,0.0
1556,0.0
2227,72000.0
2365,833393.0390386025
4121,259.7658956330909
4133,40.55578067911922
4170,146.49394504991597
4230,1195472244.3752833
4243,0.0
4354,0.0
4480,0.0
2,1, 1,21, 0,21, 0.00,60.00,WinterDesignDay
10,72259.60849487043
46,0.0
70,0.0
345,0.0
992,0.0
1016,0.0
1496,1194382124.347621
1532,0.0
1556,0.0
2227,72000.0
2365,833433.6678533934
4121,259.6084948703493
4133,40.55578067911922
4170,146.49394504991597
4230,1193548690.6797677
4243,0.0
4354,0.0
4480,0.0
2,1, 1,21, 0,22, 0.00,60.00,WinterDesignDay
10,846504.1756961799
46,0.0
70,0.0
345,0.0
992,0.0
1016,0.0
1496,997063078.3632408
1532,0.0
1556,0.0
2227,846244.6881641349
2365,833469.0445741465
4121,259.4875320451182
4133,40.555780679119219
4170,146.49394504991597
4230,996229609.3186667
4243,0.0
4354,0.0
4480,0.0
2,1, 1,21, 0,23, 0.00,60.00,WinterDesignDay
10,72187.6095422199
46,0.0
70,0.0
345,0.0
992,0.0
1016,0.0
1496,420377509.5369622
1532,0.0
1556,0.0
2227,72000.0
2365,773863.3169776383
4121,187.60954221982707
4133,40.569515046415748
4170,146.49394504991597
4230,419603646.21998456
4243,0.0
4354,0.0
4480,0.0
2,1, 1,21, 0,24, 0.00,60.00,WinterDesignDay
10,72197.90765616292
46,0.0
70,0.0
345,0.0
992,0.0
1016,0.0
1496,537482043.6947585
1532,0.0
1556,0.0
2227,72000.0
2365,639251.6547835781
4121,197.9076561628521
4133,40.71986547549717
4170,146.49394504991597
4230,536842792.03997507
4243,0.0
4354,0.0
4480,0.0
1,ARCATA-AIRPORT AUG CLG 0.4% CONDNS DB=>MCWB,  40.98,-124.10,  -8.00,  62.00
2,1, 8,21, 0, 1, 0.00,60.00,SummerDesignDay
10,601551199.2848396
46,249737579.99999974
70,96701579.99999997
345,153035999.9999997
992,231449399.99999977
1016,231449399.99999977
1496,64841377.00883618
1532,57764642.17263899
1556,57764642.17263899
2227,20601493.540942916
2365,7076734.836197188
4121,220.5457471409265
4133,40.62821830209941
4170,146.49394504991597
4230,0.0
4243,0.0
4354,99762505.19814958
4480,0.0
2,1, 8,21, 0, 2, 0.00,60.00,SummerDesignDay
10,597967220.6754733
46,249737579.99999974
70,96701579.99999997
345,153035999.9999997
992,231449399.99999977
1016,231449399.99999977
1496,64841499.12025015
1532,57764642.17263899
1556,57764642.17263899
2227,20601356.56412544
2365,7076856.947611167
4121,219.7142672502502
4133,40.635658377785947