Program Version,EnergyPlus, Version 9.0.1-bb7ca4f0da, YMD=2019.12.17 17:03
1,5,Environment Title[],Latitude[deg],Longitude[deg],Time Zone[],Elevation[m]
2,8,Day of Simulation[],Month[],Day of Month[],DST Indicator[1=yes 0=no],Hour[],StartMinute[],EndMinute[],DayType
3,5,Cumulative Day of Simulation[],Month[],Day of Month[],DST Indicator[1=yes 0=no],DayType  ! When Daily Meters Requested
4,2,Cumulative Days of Simulation[],Month[]  ! When Monthly Meters Requested
5,1,Cumulative Days of Simulation[] ! When Run Period Meters Requested
6,1,Calendar Year of Simulation[] ! When Annual Meters Requested
2228,1,WaterSystems:Electricity [J] !Hourly
1497,1,Gas:Facility [J] !Hourly
1533,1,InteriorEquipment:Gas [J] !Hourly
1017,1,Receptacle:InteriorEquipment:Electricity [J] !Hourly
11,1,Electricity:Facility [J] !Hourly
47,1,InteriorLights:Electricity [J] !Hourly
993,1,InteriorEquipment:Electricity [J] !Hourly
4114,1,Fans:Electricity [J] !Hourly
4473,1,Pumps:Electricity [J] !Hourly
4210,1,Heating:Electricity [J] !Hourly
4348,1,Cooling:Electricity [J] !Hourly
2366,1,WaterSystems:Gas [J] !Hourly
4236,1,Heating:Gas [J] !Hourly
1557,1,Receptacle:InteriorEquipment:Gas [J] !Hourly
71,1,ComplianceLtg:InteriorLights:Electricity [J] !Hourly
346,1,NonComplianceLtg:InteriorLights:Electricity [J] !Hourly
4126,1,General:Fans:Electricity [J] !Hourly
4162,1,ProcessMotors:Fans:Electricity [J] !Hourly
End of Data Dictionary
1,SANTA-ROSA_724957_CZ2010,  38.51,-122.81,  -8.00,  45.00
2,1, 1, 1, 0, 1, 0.00,60.00,Holiday
11,66342619.3445233
47,24156278.99999996
71,4835078.999999999
346,19321199.999999968
993,18722069.99999997
1017,18722069.99999997
1497,1043729.2797914465
1533,0.0
1557,0.0
2228,806563.8991129594
2366,1043729.2797914465
4114,22657706.445410395
4126,8458341.339612136
4162,14199365.105798256
4210,0.0
4236,0.0
4348,0.0
4473,0.0
2,1, 1, 1, 0, 2, 0.00,60.00,Holiday
11,67151519.3593587
47,24156278.99999996
71,4835078.999999999
346,19321199.999999968
993,18722069.99999997
1017,18722069.99999997
1497,1100460.604379382
1533,0.0
1557,0.0
2228,1612950.049899013
2366,1043628.9957842211
4114,22660220.309459744
4126,8458341.339612136
4162,14199365.105798256
4210,0.0
4236,56831.60859516093
4348,0.0
4473,0.0
2,1, 1, 1, 0, 3, 0.00,60.00,Holiday
11,67200860.93893598
47,24156278.99999996
71,4835078.999999999
346,19321199.999999968
993,18722069.99999997
1017,18722069.99999997
1497,2482085.3620113434
1533,0.0
1557,0.0
2228,1612711.5576091177
2366,1304383.668549972
4114,22709800.38132691
4126,8458341.339612136
4162,14199365.105798256
4210,0.0
4236,1177701.6934613714
4348,0.0
4473,0.0
2,1, 1, 1, 0, 4, 0.00,60.00,Holiday
11,67325380.22445116
47,24156278.99999996
71,4835078.999999999
346,19321199.999999968
993,18722069.99999997
1017,18722069.99999997
1497,5332868.612836036
1533,0.0
1557,0.0
2228,1599354.0609265017
2366,1038151.357973672
4114,22847677.16352471
4126,8458341.339612136
4162,14199365.105798256
4210,0.0
4236,4294717.254862363
4348,0.0
4473,0.0
2,1, 1, 1, 0, 5, 0.00,60.00,Holiday
11,66730366.094722989
47,24156278.99999996
71,4835078.999999999
346,19321199.999999968
993,18722069.99999997
1017,18722069.99999997
1497,9958669.92120459
1533,0.0
1557,0.0
2228,799735.4137066667
2366,1038408.3481712393
4114,23052281.681016368
4126,8458341.339612136
4162,14199365.105798256
4210,0.0
4236,8920261.573033352
4348,0.0
4473,0.0
2,1, 1, 1, 0, 6, 0.00,60.00,Holiday
11,138034878.69661094
47,52754678.99999992
71,4835078.999999999
346,47919599.99999992
993,47320469.999999929
1017,47320469.999999929
1497,4602569.914629181
1533,0.0
1557,0.0
2228,1599571.8147808468
2366,1306422.7893589428
4114,24835667.404151776
4126,10490501.918585619
4162,14199365.105798256
4210,11524490.477678335
4236,3296147.125270239
4348,0.0
4473,0.0
2,1, 1, 1, 0, 7, 0.00,60.00,Holiday
11,197752714.33730225
47,74203478.99999988
71,4835078.999999999
346,69368399.9999999
993,68769269.9999999
1017,68769269.9999999
1497,422579128.8504824
1533,28597212.921243654
1557,28597212.921243654
2228,1612756.512141754
2366,1043653.376201022
4114,42070940.27171458
4126,10490501.91858562
4162,14199365.105798256
4210,11096268.553446118
4236,392938262.55303767
4348,0.0
4473,0.0
2,1, 1, 1, 0, 8, 0.00,60.00,Holiday
11,188367112.74565653
47,74199523.31555876
71,4831123.315558886
346,69368399.9999999
993,68769269.9999999
1017,68769269.9999999
1497,223715838.83484669
1533,28597212.921243654
1557,28597212.921243654
2228,1654791.861708098
2366,1324672.6467863545
4114,33262071.226938227
4126,10490501.918585619
4162,14199365.105798256
4210,10481456.341451485
4236,193793953.26681666
4348,0.0
4473,0.0
2,1, 1, 1, 0, 9, 0.00,60.00,Holiday
11,205373270.60013528
47,77828627.1320551
71,8460227.132055236
346,69368399.9999999
993,72641339.99999988
1017,72641339.99999988
1497,423736866.18714836
1533,0.0
1557,0.0
2228,2526725.4943517658
2366,1338421.3815794155
4114,42042089.326215568
4126,22380531.95022365
4162,14199365.105798256
4210,9734571.123946175
4236,422398444.8055688
4348,0.0
4473,599917.5235667878
2,1, 1, 1, 0,10, 0.00,60.00,Holiday
11,197117119.6282637
47,77691758.96101932
71,8323358.961019444
346,69368399.9999999
993,72641339.99999988
1017,72641339.99999988
1497,308455223.88531687
1533,0.0
1557,0.0
2228,2822090.237046973
2366,1512181.9302560087
4114,34434652.57648179
4126,16525468.064050043
4162,14199365.105798256
4210,9287722.950451099
4236,306943041.95506086
4348,0.0
4473,239554.9032646312
2,1, 1, 1, 0,11, 0.00,60.00,Holiday
11,202692916.28370763
47,77590729.93352324
71,29671129.93352329
346,47919599.99999992
993,74424959.99999996
1017,74424959.99999996
1497,244499391.0984296
1533,0.0
1557,0.0
2228,6037590.700932347
2366,2176321.6464903375
4114,35027804.41324219
4126,16519577.605455207
4162,14199365.105798256
4210,9406635.414433727
4236,242323069.45193926
4348,0.0
4473,205195.82157611598
2,1, 1, 1, 0,12, 0.00,60.00,Holiday
11,203156401.15028916
47,77496700.6869377
71,29577100.68693775
346,47919599.99999992
993,74424959.99999996
1017,74424959.99999996
1497,241686330.45430816
1533,11438885.168497468
1557,11438885.168497468
2228,6703392.916926006
2366,2090075.4560407545
4114,34571669.08590515
4126,16519577.605455207
4162,14199365.105798256
4210,9756152.053944249
4236,228157369.8297699
4348,0.0
4473,203526.4065761597
2,1, 1, 1, 0,13, 0.00,60.00,Holiday
11,229823071.69018365
47,88130436.70795048
71,40210836.70795049
346,47919599.99999992
993,89913239.99999997
1017,89913239.99999997
1497,190097236.4390241
1533,11438885.168497468
1557,11438885.168497468
2228,7488171.18692674
2366,2460227.4208826769
4114,34215449.55012704
4126,16519577.605455207
4162,14199365.105798256
4210,9876072.801545676
4236,176198123.84964399
4348,0.0
4473,199701.44363379346
2,1, 1, 1, 0,14, 0.00,60.00,Holiday
11,227503226.0909505
47,86996679.51352912
71,39077079.51352916
346,47919599.99999992
993,89913239.99999997
1017,89913239.99999997
1497,145025722.21400733
1533,0.0
1557,0.0
2228,7408206.4226288669
2366,2479600.431559617
4114,33073557.52780418
4126,16519577.605455207
4162,14199365.105798256
4210,9912244.131060625
4236,142546121.78244774
4348,0.0
4473,199298.49592774418
2,1, 1, 1, 0,15, 0.00,60.00,Holiday
11,226200051.79322846
47,87199788.23910466
71,39280188.23910468
346,47919599.99999992
993,89913239.99999997
1017,89913239.99999997
1497,131679277.4128598
1533,0.0
1557,0.0
2228,6355381.3402861389
2366,2430958.2078048668
4114,32415916.3147342
4126,16519577.605455207
4162,14199365.105798256
4210,10116263.671899874
4236,129248319.20505493
4348,0.0
4473,199462.22720366566
2,1, 1, 1, 0,16, 0.00,60.00,Holiday
11,225530051.51794354
47,86072314.68309263
71,38152714.68309264
346,47919599.99999992
993,89913239.99999997
1017,89913239.99999997
1497,116125227.48083598
1533,0.0
1557,0.0
2228,7404726.917446786
2366,2432160.160864557
4114,31715664.529730537
4126,16524413.33729383
4162,14199365.105798256
4210,10224547.690235392
4236,113693067.3199714
4348,0.0
4473,199557.69743831815
2,1, 1, 1, 0,17, 0.00,60.00,Holiday
11,228169852.1689947
47,88619763.48774845
71,40700163.48774847
346,47919599.99999992
993,89913239.99999997
1017,89913239.99999997
1497,141755646.70767174
1533,28597212.921243654
1557,28597212.921243654
2228,7573045.268049785
2366,2418570.6235172047
4114,31647063.15941228
4126,16543549.982157739
4162,14199365.105798256
4210,10217240.232042147
4236,110739863.16291088
4348,0.0
4473,199500.02174212159
2,1, 1, 1, 0,18, 0.00,60.00,Holiday
11,203356112.12439335
47,78647111.99999994
71,30727511.99999999
346,47919599.99999992
993,74424959.99999996
1017,74424959.99999996
1497,186172922.3938821
1533,28597212.921243654
1557,28597212.921243654
2228,7322974.068243749
2366,2158044.9888477597
4114,32278338.16823341
4126,16519577.605455207
4162,14199365.105798256
4210,10481161.692063194
4236,155417664.48379068
4348,0.0
4473,201566.1958531279
2,1, 1, 1, 0,19, 0.00,60.00,Holiday
11,242476000.03797687
47,106749035.99999982
71,15931835.999999995
346,90817199.99999984
993,101834279.99999984
1017,101834279.99999984
1497,210838922.5466813
1533,28597212.921243654
1557,28597212.921243654
2228,4758429.011421029
2366,2009826.4207748152
4114,28893840.9939855
4126,14487417.026481722
4162,14199365.105798256
4210,31430.700104991047
4236,180231883.20466287
4348,0.0
4473,208983.3324656174
2,1, 1, 1, 0,20, 0.00,60.00,Holiday
11,271570383.85579136
47,124250678.9999998
71,4835078.999999999
346,119415599.9999998
993,118816469.99999982
1017,118816469.99999982
1497,2437031.7054103689
1533,0.0
1557,0.0
2228,5827633.875930084
2366,2032485.7929432374
4114,22675600.979861507
4126,8458341.339612136
4162,14199365.105798256
4210,0.0
4236,404545.9124671314
4348,0.0
4473,0.0
2,1, 1, 1, 0,21, 0.00,60.00,Holiday
11,298947687.60242769
47,138549878.9999998
71,4835078.999999999
346,133714799.99999979
993,133115669.99999979
1017,133115669.99999979
1497,2787760.858310445
1533,0.0
1557,0.0
2228,4575649.182644416
2366,1684912.575415869
4114,22706489.419783594
4126,8458341.339612136
4162,14199365.105798256
4210,0.0
4236,1102848.282894576
4348,0.0
4473,0.0
2,1, 1, 1, 0,22, 0.00,60.00,Holiday
11,268748505.23192587
47,124250678.9999998
71,4835078.999999999
346,119415599.9999998
993,118816469.99999982
1017,118816469.99999982
1497,8730212.79007723
1533,0.0
1557,0.0
2228,2710539.8295481728
2366,1651663.0873151175
4114,22970816.40237791
4126,8458341.339612136
4162,14199365.105798256
4210,0.0
4236,7078549.702762113
4348,0.0
4473,0.0
2,1, 1, 1, 0,23, 0.00,60.00,Holiday
11,210923223.45543064
47,95652278.99999984
71,4835078.999999999
346,90817199.99999984
993,90218069.99999985
1017,90218069.99999985
1497,1324740.5461451475
1533,0.0
1557,0.0
2228,2395168.0100205095
2366,1324740.5461451475
4114,22657706.445410395
4126,8458341.339612136
4162,14199365.105798256
4210,0.0
4236,0.0
4348,0.0
4473,0.0
2,1, 1, 1, 0,24, 0.00,60.00,Holiday
11,124332182.16998822
47,52754678.99999992
71,4835078.999999999
346,47919599.99999992
993,47320469.999999929
1017,47320469.999999929
1497,1038465.7382316238
1533,0.0
1557,0.0
2228,1599326.7245778717
2366,1038465.7382316238
4114,22657706.445410395
4126,8458341.339612136
4162,14199365.105798256
4210,0.0
4236,0.0
4348,0.0
4473,0.0
2,2, 1, 2, 0, 1, 0.00,60.00,Friday
11,66328492.25681321
47,24156278.99999996
71,4835078.999999999
346,19321199.999999968
993,18722069.99999997
1017,18722069.99999997
1497,1164227.451043037
1533,0.0
1557,0.0
2228,786508.0646161314
2366,1030194.6592015821
4114,22663635.192197138
4126,8458341.339612136
4162,14199365.105798256
4210,0.0
4236,134032.7918414549
4348,0.0
4473,0.0
2,2, 1, 2, 0, 2, 0.00,60.00,Friday
11,66715810.29681822
47,24156278.99999996
71,4835078.999999999
346,19321199.999999968
993,18722069.99999997
1017,18722069.99999997
1497,9780659.803197608
1533,0.0
1557,0.0
2228,792923.6832415871
2366,1035471.9547017877
4114,23044537.613576686
4126,8458341.339612136
4162,14199365.105798256
4210,0.0
4236,8745187.84849582
4348,0.0
4473,0.0
2,2, 1, 2, 0, 3, 0.00,60.00,Friday
11,68205643.42292236
47,24156278.99999996
71,4835078.999999999
346,19321199.999999968
993,18722069.99999997
1017,18722069.99999997
1497,43547109.00205943
1533,0.0
1557,0.0
2228,793045.9775514401
2366,1123666.6354042418
4114,24534248.445370974
4126,8458341.339612136
4162,14199365.105798256
4210,0.0
4236,42423442.366655189
4348,0.0
4473,0.0
2,2, 1, 2, 0, 4, 0.00,60.00,Friday
11,69530426.71513598
47,24156278.99999996
71,4835078.999999999
346,19321199.999999968
993,18722069.99999997
1017,18722069.99999997
1497,73648345.12315434
1533,0.0
1557,0.0
2228,786484.8030204293
2366,1126865.1876462948
4114,25865592.912115598
4126,8458341.339612136
4162,14199365.105798256
4210,0.0
4236,72521479.93550805
4348,0.0
4473,0.0
2,2, 1, 2, 0, 5, 0.00,60.00,Friday
11,72199348.43806705
47,24156278.99999996
71,4835078.999999999
346,19321199.999999968
993,18722069.99999997
1017,18722069.99999997
1497,116181097.8043497
1533,0.0
1557,0.0
2228,1572974.527887199
2366,1103028.2442203875
4114,27748024.910179914
4126,8458341.339612136
4162,14199365.105798256
4210,0.0
4236,115078069.56012932
4348,0.0
4473,0.0
2,2, 1, 2, 0, 6, 0.00,60.00,Friday
11,180531802.41091035
47,53890838.99999992
71,5971238.999999999
346,47919599.99999992
993,47871269.999999929
1017,47871269.999999929
1497,90304905.09147471
1533,0.0
1557,0.0
2228,786547.7519945296
2366,1036580.6574605252
4114,28638527.006571164
4126,10490501.918585619
4162,14199365.105798256
4210,49344618.65234471
4236,89268324.43401419
4348,0.0
4473,0.0
2,2, 1, 2, 0, 7, 0.00,60.00,Friday
11,269533060.3523726
47,80361638.99999988
71,5971238.999999999
346,74390399.99999988
993,69320069.9999999
1017,69320069.9999999
1497,1183934864.9163793
1533,28597212.921243654
1557,28597212.921243654
2228,786591.083502963
2366,1034825.8840529756
4114,68639218.00234102
4126,22395349.585718987
4162,14199365.105798256
4210,49560612.81347389
4236,1154302826.1110826
4348,0.0
4473,864929.4530548696
2,2, 1, 2, 0, 8, 0.00,60.00,Friday
11,281058141.7956021
47,95898655.66385643
71,21508255.663856564
346,74390399.99999988
993,83139479.99999988
1017,83139479.99999988
1497,792889021.791229
1533,28882321.086319496
1557,28882321.086319496
2228,2595752.151191607
2366,1689905.6810877822
4114,49472887.6100578
4126,16521765.9956017
4162,14199365.105798256
4210,49591722.98411451
4236,762316795.0238218
4348,0.0
4473,359643.38638184816
2,2, 1, 2, 0, 9, 0.00,60.00,Friday
11,334610440.26429739
47,123401846.7293411
71,49011446.72934124
346,74390399.99999988
993,112981499.99999987
1017,112981499.99999987
1497,585893948.202849
1533,285108.16507584266
1557,285108.16507584266
2228,4790392.624081815
2366,2455407.120729479
4114,44568701.60399782
4126,16519577.605455207
4162,14199365.105798256
4210,48596717.35111364
4236,583153432.9170437
4348,0.0
4473,271281.9557631632
2,2, 1, 2, 0,10, 0.00,60.00,Friday
11,390484017.8391354
47,148748854.84492696
71,74358454.84492702
346,74390399.99999988
993,143958059.99999995
1017,143958059.99999995
1497,482235950.79776957
1533,285108.16507584266
1557,285108.16507584266
2228,7041014.277531943
2366,2942707.9268840497
4114,42274128.84407586
4126,16572322.00426323
4162,14199365.105798256
4210,48217863.17926633
4236,479008134.7058096
4348,0.0
4473,244096.69333439726
2,2, 1, 2, 0,11, 0.00,60.00,Friday
11,334420117.3679394
47,128092986.06360674
71,75151386.06360677
346,52941599.9999999
993,122509259.99999996
1017,122509259.99999996
1497,476314331.12411078
1533,513194.69713651677
1557,513194.69713651677
2228,7942940.59746048
2366,3168392.1800688777
4114,42767915.30099757
4126,16642976.984304052
4162,14199365.105798256
4210,32874076.137616707
4236,472632744.2469053
4348,0.0
4473,232939.26825800027
2,2, 1, 2, 0,12, 0.00,60.00,Friday
11,322173487.80053
47,124809625.63975886
71,71868025.63975889
346,52941599.9999999
993,122509259.99999996
1017,122509259.99999996
1497,382003410.6973645
1533,11952079.865633984
1557,11952079.865633984
2228,12221342.475167688
2366,4270803.186067734
4114,39257681.998172689
4126,16882520.88197738
4162,14199365.105798256
4210,23155048.5163285
4236,365780527.6456628
4348,0.0
4473,220529.17110236543
2,2, 1, 2, 0,13, 0.00,60.00,Friday
11,319031411.2174599
47,127011880.10031188
71,74070280.10031189
346,52941599.9999999
993,122509259.99999996
1017,122509259.99999996
1497,328423222.7325168
1533,11952079.865633984
1557,11952079.865633984
2228,12578524.003982615
2366,4424765.867573699
4114,37820951.29308274
4126,16950160.961722044
4162,14199365.105798256
4210,18898205.161775143
4236,312046376.9993092
4348,0.0
4473,212590.65830759845
2,2, 1, 2, 0,14, 0.00,60.00,Friday
11,314233937.9252473
47,128664199.68718861
71,75722599.68718863
346,52941599.9999999
993,122509259.99999996
1017,122509259.99999996
1497,261522855.27001447
1533,513194.69713651677
1557,513194.69713651677
2228,12420540.422650405
2366,4475956.687291341
4114,37026594.46825987
4126,17152444.466836707
4162,14199365.105798256
4210,13408638.978913462
4236,256533703.88558663
4348,0.0
4473,204704.3682351404
2,2, 1, 2, 0,15, 0.00,60.00,Friday
11,308442244.51250478
47,128387906.85012776
71,75446306.85012779
346,52941599.9999999
993,122509259.99999996
1017,122509259.99999996
1497,190523050.57788179
1533,427662.2476137639
1557,427662.2476137639
2228,10442015.068857864
2366,3446415.112416247
4114,35788591.54602428
4126,17375780.82775651
4162,14199365.105798256
4210,11114581.533588438
4236,186648973.21785177
4348,0.0
4473,199889.5139065783
2,2, 1, 2, 0,16, 0.00,60.00,Friday
11,300950904.2065031
47,125037774.7531352
71,72096174.75313522
346,52941599.9999999
993,122509259.99999996
1017,122509259.99999996
1497,121866373.97859472
1533,427662.2476137639
1557,427662.2476137639
2228,8896677.380789139
2366,3509214.7220144707
4114,34174743.50254049
4126,18030745.12681964
4162,14199365.105798256
4210,10133743.92559289
4236,117929497.00896648
4348,0.0
4473,198704.64444548277
2,2, 1, 2, 0,17, 0.00,60.00,Friday
11,307226400.9269745
47,130090961.73761778
71,77149361.7376178
346,52941599.9999999
993,122509259.99999996
1017,122509259.99999996
1497,175942907.8270017
1533,29024875.168857416
1557,29024875.168857416
2228,9660218.826877322
2366,3626726.539845392
4114,34757392.076347578
4126,17963016.725151414
4162,14199365.105798256
4210,10009369.946388375
4236,143291306.11829887
4348,0.0
4473,199198.33974355408
2,2, 1, 2, 0,18, 0.00,60.00,Friday
11,300163721.32276096
47,123776342.99999996
71,70834742.99999997
346,52941599.9999999
993,118102859.99999997
1017,118102859.99999997
1497,240179095.8476778
1533,29024875.168857416
1557,29024875.168857416
2228,9776593.25679231
2366,3165942.01776489
4114,35862034.94898423
4126,17425217.68199164
4162,14199365.105798256
4210,12444270.67000049
4236,207988278.6610555
4348,0.0
4473,201619.4469839968
2,2, 1, 2, 0,19, 0.00,60.00,Friday
11,336991247.7813408
47,143344268.99999986
71,47505068.99999999
346,95839199.99999984
993,135564839.99999989
1017,135564839.99999989
1497,227431710.1417331
1533,28597212.921243654
1557,28597212.921243654
2228,8782296.827332993
2366,2992018.650942127
4114,32976972.115134177
4126,16739980.167433834
4162,14199365.105798256
4210,16114305.81568555
4236,195842478.56954734
4348,0.0
4473,208564.02318832294
2,2, 1, 2, 0,20, 0.00,60.00,Friday
11,404383652.5226148
47,171942668.99999974
71,47505068.99999999
346,124437599.9999998
993,164163239.99999974
1017,164163239.99999974
1497,215409309.92530666
1533,0.0
1557,0.0
2228,6642013.64145955
2366,2488936.987740582
4114,32017044.163673253
4126,16591073.78570666
4162,14199365.105798256
4210,29396813.497632848
4236,212920372.9375661
4348,0.0
4473,221872.21984947258
2,2, 1, 2, 0,21, 0.00,60.00,Friday
11,436667405.18847236
47,180270629.9999997
71,41533829.999999988
346,138736799.9999998
993,169616699.99999974
1017,169616699.99999974
1497,242776171.7768636
1533,0.0
1557,0.0
2228,7246269.956046877
2366,2487286.8720970109
4114,32093752.593187687
4126,16529792.081011596
4162,14199365.105798256
4210,47202192.387265268
4236,240288884.90476657
4348,0.0
4473,237860.25197296538
2,2, 1, 2, 0,22, 0.00,60.00,Friday
11,357007539.80747237
47,143777915.9999998
71,19340315.999999998
346,124437599.9999998
993,132085079.9999998
1017,132085079.9999998
1497,63093987.78372229
1533,0.0
1557,0.0
2228,4665999.5007433439
2366,2007065.988818196
4114,27391962.648680509
4126,10490501.918585619
4162,14199365.105798256
4210,49086581.65804888
4236,61086921.7949041
4348,0.0
4473,0.0
2,2, 1, 2, 0,23, 0.00,60.00,Friday
11,264304010.29523448
47,96788438.99999984
71,5971238.999999999
346,90817199.99999984
993,90768869.99999985
1017,90768869.99999985
1497,1348686.3952128927
1533,0.0
1557,0.0
2228,2549467.308680596
2366,1348686.3952128927
4114,24689867.024383874
4126,10490501.918585619
4162,14199365.105798256
4210,49507366.96217026
4236,0.0
4348,0.0
4473,0.0
2,2, 1, 2, 0,24, 0.00,60.00,Friday
11,175834235.49200217
47,52754678.99999992
71,4835078.999999999
346,47919599.99999992
993,47320469.999999929
1017,47320469.999999929
1497,1314300.2731815945
1533,0.0
1557,0.0
2228,1626847.7330782298
2366,1314300.2731815945
4114,24689867.024383874
4126,10490501.918585619
4162,14199365.105798256
4210,49442371.73454014
4236,0.0
4348,0.0
4473,0.0
2,3, 1, 3, 0, 1, 0.00,60.00,Saturday
11,68454537.90458757
47,24156278.99999996
71,4835078.999999999
346,19321199.999999968
993,18722069.99999997
1017,18722069.99999997
1497,10691927.690442864
1533,0.0
1557,0.0
2228,2504576.3568219228
2366,1334652.3623043583
4114,23071612.547765703
4126,8458341.339612136
4162,14199365.105798256
4210,0.0
4236,9357275.328138506
4348,0.0
4473,0.0
2,3, 1, 3, 0, 2, 0.00,60.00,Saturday
11,69654140.52331759
47,24156278.99999996
71,4835078.999999999
346,19321199.999999968
993,18722069.99999997
1017,18722069.99999997
1497,57009294.07925299
1533,0.0
1557,0.0
2228,1655085.8516714574
2366,1327672.2772155435
4114,25120705.671646179
4126,8458341.339612136
4162,14199365.105798256
4210,0.0
4236,55681621.80203745
4348,0.0
4473,0.0
2,3, 1, 3, 0, 3, 0.00,60.00,Saturday
11,72603096.88277887
47,24156278.99999996
71,4835078.999999999
346,19321199.999999968
993,18722069.99999997
1017,18722069.99999997
1497,124074766.33056551
1533,0.0
1557,0.0
2228,1626890.585006691
2366,1087961.4510167959
4114,28097857.297772238
4126,8458341.339612136
4162,14199365.105798256
4210,0.0
4236,122986804.8795487
4348,0.0
4473,0.0
2,3, 1, 3, 0, 4, 0.00,60.00,Saturday
11,74521803.35648035
47,24156278.99999996
71,4835078.999999999
346,19321199.999999968
993,18722069.99999997
1017,18722069.99999997
1497,168248647.0979553
1533,0.0
1557,0.0
2228,1599423.5260987858
2366,1264213.9372510394
4114,30044030.83038162
4126,8458341.339612136
4162,14199365.105798256
4210,0.0
4236,166984433.16070426
4348,0.0
4473,0.0
2,3, 1, 3, 0, 5, 0.00,60.00,Saturday
11,76381280.03352507
47,24156278.99999996
71,4835078.999999999
346,19321199.999999968
993,18722069.99999997
1017,18722069.99999997
1497,210063057.95701242
1533,0.0
1557,0.0
2228,1599401.61337551
2366,1040459.0629115983
4114,31903529.420149615
4126,8458341.339612136
4162,14199365.105798256
4210,0.0
4236,209022598.89410082
4348,0.0
4473,0.0
2,3, 1, 3, 0, 6, 0.00,60.00,Saturday
11,183090315.92968694
47,52754678.99999992
71,4835078.999999999
346,47919599.99999992
993,47320469.999999929
1017,47320469.999999929
1497,184368459.89704988
1533,0.0
1557,0.0
2228,799818.9214587049
2366,1309554.1995871235
4114,32787222.233618726
4126,10490501.918585619
4162,14199365.105798256
4210,49428125.77460961
4236,183058905.69746278
4348,0.0
4473,0.0
2,3, 1, 3, 0, 7, 0.00,60.00,Saturday
11,273263274.08112838
47,80361638.99999988
71,5971238.999999999
346,74390399.99999988
993,69320069.9999999
1017,69320069.9999999
1497,1319635263.2811764
1533,28597212.921243654
1557,28597212.921243654
2228,1613121.2418778344
2366,1050695.3051136162
4114,71441559.72188479
4126,20096184.882625279
4162,14199365.105798256
4210,49558174.604619789
4236,1289987355.0548189
4348,0.0
4473,968709.5127461689
2,3, 1, 3, 0, 8, 0.00,60.00,Saturday
11,267712538.84725399
47,83917034.58396411
71,9526634.583964235
346,74390399.99999988
993,73192139.99999988
1017,73192139.99999988
1497,1004483088.1158486
1533,28597212.921243654
1557,28597212.921243654
2228,4503989.728548607
2366,1988302.871169287
4114,55813061.718708727
4126,16519577.605455207
4162,14199365.105798256
4210,49583067.211033578
4236,973897572.3234354
4348,0.0
4473,703245.6049989915
2,3, 1, 3, 0, 9, 0.00,60.00,Saturday
11,295562054.9444324
47,100737191.11657374
71,26346791.116573857
346,74390399.99999988
993,90883619.99999987
1017,90883619.99999987
1497,780450458.9936059
1533,285108.16507584266
1557,285108.16507584266
2228,4743054.070332063
2366,2053374.311458331
4114,49111660.54917451
4126,16519577.605455207
4162,14199365.105798256
4210,49525839.35075402
4236,778111976.5170717
4348,0.0
4473,560689.8575981222
2,3, 1, 3, 0,10, 0.00,60.00,Saturday
11,331676507.69348707
47,118058535.94033508
71,43668135.9403352
346,74390399.99999988
993,114116039.99999988
1017,114116039.99999988
1497,594101246.8790014
1533,285108.16507584266
1557,285108.16507584266
2228,5724944.871512754
2366,2358154.192951879
4114,43950468.56227664
4126,16563857.998109648
4162,14199365.105798256
4210,49415187.51386644
4236,591457984.5209736
4348,0.0
4473,411330.8054961831
2,3, 1, 3, 0,11, 0.00,60.00,Saturday
11,332218233.2124994
47,116767751.04267642
71,63826151.042676437
346,52941599.9999999
993,115899659.99999997
1017,115899659.99999997
1497,499352156.9399034
1533,513194.69713651677
1557,513194.69713651677
2228,8161349.527508242
2366,2874709.01386751
4114,41585260.54401919
4126,16691029.666497674
4162,14199365.105798256
4210,49494889.76808766
4236,495964253.22889938
4348,0.0
4473,309322.33020802438
2,3, 1, 3, 0,12, 0.00,60.00,Saturday
11,320085467.3650331
47,116713736.47298664
71,63772136.47298667
346,52941599.9999999
993,115899659.99999997
1017,115899659.99999997
1497,390070339.974762
1533,11952079.865633984
1557,11952079.865633984
2228,11078036.821689573
2366,3453103.9312314859
4114,38497910.12532483
4126,16955250.038323448
4162,14199365.105798256
4210,37653964.34003618
4236,374665156.1778966
4348,0.0
4473,242159.60499604583
2,3, 1, 3, 0,13, 0.00,60.00,Saturday
11,292991462.9130229
47,113321808.11711709
71,60380208.11711711
346,52941599.9999999
993,114247259.99999997
1017,114247259.99999997
1497,264241148.04920677
1533,11952079.865633984
1557,11952079.865633984
2228,12644987.090977213
2366,3723352.6807335617
4114,35642966.64283525
4126,17047138.503580207
4162,14199365.105798256
4210,16898347.16062891
4236,248565715.50283925
4348,25507.4246654587
4473,210586.47679908196
2,3, 1, 3, 0,14, 0.00,60.00,Saturday
11,285436673.8559677
47,113261004.66119606
71,60319404.66119607
346,52941599.9999999
993,114247259.99999997
1017,114247259.99999997
1497,149029105.02374036
1533,513194.69713651677
1557,513194.69713651677
2228,11735746.991099284
2366,3738634.41194297
4114,34195940.61372212
4126,17562848.376265915
4162,14199365.105798256
4210,11166418.744235587
4236,144777275.91466088
4348,630059.8197820992
4473,200243.02593267355
2,3, 1, 3, 0,15, 0.00,60.00,Saturday
11,283685953.30437538
47,113156100.2867718
71,60214500.28677181
346,52941599.9999999
993,114247259.99999997
1017,114247259.99999997
1497,90503452.39050785
1533,427662.2476137639
1557,427662.2476137639
2228,10032107.708440688
2366,3156903.835781976
4114,33841444.306489359
4126,18052228.6420427
4162,14199365.105798256
4210,10271613.71506751
4236,86918886.30711212
4348,1939098.5172611688
4473,198328.77034495935
2,3, 1, 3, 0,16, 0.00,60.00,Saturday
11,282832568.3476159
47,113473362.42421754
71,60531762.42421755
346,52941599.9999999
993,114247259.99999997
1017,114247259.99999997
1497,57708658.082043129
1533,427662.2476137639
1557,427662.2476137639
2228,9900254.090685577
2366,3156251.9112209298
4114,33754503.74068064
4126,18470503.44915729
4162,14199365.105798256
4210,9702140.935308623
4236,54124743.92320843
4348,1556846.8654198449
4473,198200.29130375337
2,3, 1, 3, 0,17, 0.00,60.00,Saturday
11,286105148.6785728
47,118515482.54716203
71,65573882.547162059
346,52941599.9999999
993,114247259.99999997
1017,114247259.99999997
1497,80850563.48887027
1533,29024875.168857416
1557,29024875.168857416
2228,9772963.270698488
2366,3144308.1607094828
4114,33597571.68565004
4126,18645114.55927006
4162,14199365.105798256
4210,9637575.69772576
4236,48681380.15930337
4348,136056.26616336453
4473,198239.21117320844
2,3, 1, 3, 0,18, 0.00,60.00,Saturday
11,278481149.57421347
47,111937382.99999996
71,64017782.99999998
346,47919599.99999992
993,113145659.99999997
1017,113145659.99999997
1497,113903042.13623892
1533,28597212.921243654
1557,28597212.921243654
2228,9644961.647430372
2366,2750322.304214608
4114,33358448.879654785
4126,17981696.300969755
4162,14199365.105798256
4210,10196486.50418033
4236,82555506.91078067
4348,0.0
4473,198209.54294813454
2,3, 1, 3, 0,19, 0.00,60.00,Saturday
11,305402189.43166789
47,128942549.99999987
71,38125349.999999988
346,90817199.99999984
993,125066699.99999988
1017,125066699.99999988
1497,143236048.52171765
1533,28597212.921243654
1557,28597212.921243654
2228,9208788.193860943
2366,2811287.5650584038
4114,30960172.45349606
4126,16532980.4509371
4162,14199365.105798256
4210,11023230.417963157
4236,111827548.03541558
4348,0.0
4473,200748.3663479415
2,3, 1, 3, 0,20, 0.00,60.00,Saturday
11,317080216.05006226
47,142745273.9999998
71,23329673.999999994
346,119415599.9999998
993,138176819.9999998
1017,138176819.9999998
1497,148783180.77894224
1533,0.0
1557,0.0
2228,7193651.787397455
2366,2466678.995919631
4114,28731098.24260063
4126,14487417.026481722
4162,14199365.105798256
4210,26017.194797769287
4236,146316501.78302259
4348,0.0
4473,207354.82526671503
2,3, 1, 3, 0,21, 0.00,60.00,Saturday
11,344693507.30940249
47,157044473.99999977
71,23329673.999999994
346,133714799.99999979
993,152476019.99999977
1017,152476019.99999977
1497,220314409.80525414
1533,0.0
1557,0.0
2228,6044909.486538028
2366,2072778.2216382982
4114,28856701.002346346
4126,14487417.026481722
4162,14199365.105798256
4210,38996.787600387936
4236,218241631.58361585
4348,0.0
4473,232406.03291804764
2,3, 1, 3, 0,22, 0.00,60.00,Saturday
11,284430171.07108876
47,127949597.9999998
71,8533997.999999999
346,119415599.9999998
993,122688539.9999998
1017,122688539.9999998
1497,289204866.3269869
1533,0.0