Program Version,EnergyPlus, Version 9.0.1-bb7ca4f0da, YMD=2019.12.13 16:24
1,5,Environment Title[],Latitude[deg],Longitude[deg],Time Zone[],Elevation[m]
2,8,Day of Simulation[],Month[],Day of Month[],DST Indicator[1=yes 0=no],Hour[],StartMinute[],EndMinute[],DayType
3,5,Cumulative Day of Simulation[],Month[],Day of Month[],DST Indicator[1=yes 0=no],DayType  ! When Daily Report Variables Requested
4,2,Cumulative Days of Simulation[],Month[]  ! When Monthly Report Variables Requested
5,1,Cumulative Days of Simulation[] ! When Run Period Report Variables Requested
6,1,Calendar Year of Simulation[] ! When Annual Report Variables Requested
7,1,Environment,Site Outdoor Air Drybulb Temperature [C] !TimeStep
8,1,Environment,Site Outdoor Air Drybulb Temperature [C] !Hourly
End of Data Dictionary
1,OAKLAND_724930_CZ2010,  37.72,-122.22,  -8.00,   2.00
2,1, 1, 1, 0, 1, 0.00,15.00,Holiday
7,8.6
2,1, 1, 1, 0, 1,15.00,30.00,Holiday
7,9.4
2,1, 1, 1, 0, 1,30.00,45.00,Holiday
7,10.2
2,1, 1, 1, 0, 1,45.00,60.00,Holiday
7,11.0
2,1, 1, 1, 0, 1, 0.00,60.00,Holiday
8,9.8
2,1, 1, 1, 0, 2, 0.00,15.00,Holiday
7,11.0
2,1, 1, 1, 0, 2,15.00,30.00,Holiday
7,11.0
2,1, 1, 1, 0, 2,30.00,45.00,Holiday
7,11.0
2,1, 1, 1, 0, 2,45.00,60.00,Holiday
7,11.0
2,1, 1, 1, 0, 2, 0.00,60.00,Holiday
8,11.0
2,1, 1, 1, 0, 3, 0.00,15.00,Holiday
7,11.0
2,1, 1, 1, 0, 3,15.00,30.00,Holiday
7,11.0
2,1, 1, 1, 0, 3,30.00,45.00,Holiday
7,11.0
2,1, 1, 1, 0, 3,45.00,60.00,Holiday
7,11.0
2,1, 1, 1, 0, 3, 0.00,60.00,Holiday
8,11.0
2,1, 1, 1, 0, 4, 0.00,15.00,Holiday
7,10.975
2,1, 1, 1, 0, 4,15.00,30.00,Holiday
7,10.95
2,1, 1, 1, 0, 4,30.00,45.00,Holiday
7,10.925
2,1, 1, 1, 0, 4,45.00,60.00,Holiday
7,10.9
2,1, 1, 1, 0, 4, 0.00,60.00,Holiday
8,10.937499999999999
2,1, 1, 1, 0, 5, 0.00,15.00,Holiday
7,10.700000000000001
2,1, 1, 1, 0, 5,15.00,30.00,Holiday
7,10.5
2,1, 1, 1, 0, 5,30.00,45.00,Holiday
7,10.299999999999999
2,1, 1, 1, 0, 5,45.00,60.00,Holiday
7,10.1
2,1, 1, 1, 0, 5, 0.00,60.00,Holiday
8,10.4
2,1, 1, 1, 0, 6, 0.00,15.00,Holiday
7,10.325
2,1, 1, 1, 0, 6,15.00,30.00,Holiday
7,10.55
2,1, 1, 1, 0, 6,30.00,45.00,Holiday
7,10.775
2,1, 1, 1, 0, 6,45.00,60.00,Holiday
7,11.0
2,1, 1, 1, 0, 6, 0.00,60.00,Holiday
8,10.6625
2,1, 1, 1, 0, 7, 0.00,15.00,Holiday
7,10.975
2,1, 1, 1, 0, 7,15.00,30.00,Holiday
7,10.95
2,1, 1, 1, 0, 7,30.00,45.00,Holiday
7,10.925
2,1, 1, 1, 0, 7,45.00,60.00,Holiday
7,10.9
2,1, 1, 1, 0, 7, 0.00,60.00,Holiday
8,10.937499999999999
2,1, 1, 1, 0, 8, 0.00,15.00,Holiday
7,10.75
2,1, 1, 1, 0, 8,15.00,30.00,Holiday
7,10.600000000000002
2,1, 1, 1, 0, 8,30.00,45.00,Holiday
7,10.450000000000001
2,1, 1, 1, 0, 8,45.00,60.00,Holiday
7,10.3
2,1, 1, 1, 0, 8, 0.00,60.00,Holiday
8,10.525000000000003
2,1, 1, 1, 0, 9, 0.00,15.00,Holiday
7,10.475000000000002
2,1, 1, 1, 0, 9,15.00,30.00,Holiday
7,10.65
2,1, 1, 1, 0, 9,30.00,45.00,Holiday
7,10.825
2,1, 1, 1, 0, 9,45.00,60.00,Holiday
7,11.0
2,1, 1, 1, 0, 9, 0.00,60.00,Holiday
8,10.7375
2,1, 1, 1, 0,10, 0.00,15.00,Holiday
7,11.0
2,1, 1, 1, 0,10,15.00,30.00,Holiday
7,11.0
2,1, 1, 1, 0,10,30.00,45.00,Holiday
7,11.0
2,1, 1, 1, 0,10,45.00,60.00,Holiday
7,11.0
2,1, 1, 1, 0,10, 0.00,60.00,Holiday
8,11.0
2,1, 1, 1, 0,11, 0.00,15.00,Holiday
7,11.25
2,1, 1, 1, 0,11,15.00,30.00,Holiday
7,11.5
2,1, 1, 1, 0,11,30.00,45.00,Holiday
7,11.75
2,1, 1, 1, 0,11,45.00,60.00,Holiday
7,12.0
2,1, 1, 1, 0,11, 0.00,60.00,Holiday
8,11.625
2,1, 1, 1, 0,12, 0.00,15.00,Holiday
7,11.925
2,1, 1, 1, 0,12,15.00,30.00,Holiday
7,11.85
2,1, 1, 1, 0,12,30.00,45.00,Holiday
7,11.774999999999999
2,1, 1, 1, 0,12,45.00,60.00,Holiday
7,11.7
2,1, 1, 1, 0,12, 0.00,60.00,Holiday
8,11.8125
2,1, 1, 1, 0,13, 0.00,15.00,Holiday
7,11.524999999999999
2,1, 1, 1, 0,13,15.00,30.00,Holiday
7,11.35
2,1, 1, 1, 0,13,30.00,45.00,Holiday
7,11.175
2,1, 1, 1, 0,13,45.00,60.00,Holiday
7,11.0
2,1, 1, 1, 0,13, 0.00,60.00,Holiday
8,11.2625
2,1, 1, 1, 0,14, 0.00,15.00,Holiday
7,11.25
2,1, 1, 1, 0,14,15.00,30.00,Holiday
7,11.5
2,1, 1, 1, 0,14,30.00,45.00,Holiday
7,11.75
2,1, 1, 1, 0,14,45.00,60.00,Holiday
7,12.0
2,1, 1, 1, 0,14, 0.00,60.00,Holiday
8,11.625
2,1, 1, 1, 0,15, 0.00,15.00,Holiday
7,12.0
2,1, 1, 1, 0,15,15.00,30.00,Holiday
7,12.0
2,1, 1, 1, 0,15,30.00,45.00,Holiday
7,12.0
2,1, 1, 1, 0,15,45.00,60.00,Holiday
7,12.0
2,1, 1, 1, 0,15, 0.00,60.00,Holiday
8,12.0
2,1, 1, 1, 0,16, 0.00,15.00,Holiday
7,11.975
2,1, 1, 1, 0,16,15.00,30.00,Holiday
7,11.95
2,1, 1, 1, 0,16,30.00,45.00,Holiday
7,11.925
2,1, 1, 1, 0,16,45.00,60.00,Holiday
7,11.9
2,1, 1, 1, 0,16, 0.00,60.00,Holiday
8,11.937499999999999
2,1, 1, 1, 0,17, 0.00,15.00,Holiday
7,11.75
2,1, 1, 1, 0,17,15.00,30.00,Holiday
7,11.600000000000002
2,1, 1, 1, 0,17,30.00,45.00,Holiday
7,11.450000000000001
2,1, 1, 1, 0,17,45.00,60.00,Holiday
7,11.3
2,1, 1, 1, 0,17, 0.00,60.00,Holiday
8,11.525000000000003
2,1, 1, 1, 0,18, 0.00,15.00,Holiday
7,11.225000000000002
2,1, 1, 1, 0,18,15.00,30.00,Holiday
7,11.15
2,1, 1, 1, 0,18,30.00,45.00,Holiday
7,11.075
2,1, 1, 1, 0,18,45.00,60.00,Holiday
7,11.0
2,1, 1, 1, 0,18, 0.00,60.00,Holiday
8,11.1125
2,1, 1, 1, 0,19, 0.00,15.00,Holiday
7,11.0
2,1, 1, 1, 0,19,15.00,30.00,Holiday
7,11.0
2,1, 1, 1, 0,19,30.00,45.00,Holiday
7,11.0
2,1, 1, 1, 0,19,45.00,60.00,Holiday
7,11.0
2,1, 1, 1, 0,19, 0.00,60.00,Holiday
8,11.0
2,1, 1, 1, 0,20, 0.00,15.00,Holiday
7,10.975
2,1, 1, 1, 0,20,15.00,30.00,Holiday
7,10.95
2,1, 1, 1, 0,20,30.00,45.00,Holiday
7,10.925
2,1, 1, 1, 0,20,45.00,60.00,Holiday
7,10.9
2,1, 1, 1, 0,20, 0.00,60.00,Holiday
8,10.937499999999999
2,1, 1, 1, 0,21, 0.00,15.00,Holiday
7,10.675
2,1, 1, 1, 0,21,15.00,30.00,Holiday
7,10.45
2,1, 1, 1, 0,21,30.00,45.00,Holiday
7,10.225
2,1, 1, 1, 0,21,45.00,60.00,Holiday
7,10.0
2,1, 1, 1, 0,21, 0.00,60.00,Holiday
8,10.3375
2,1, 1, 1, 0,22, 0.00,15.00,Holiday
7,9.975
2,1, 1, 1, 0,22,15.00,30.00,Holiday
7,9.95
2,1, 1, 1, 0,22,30.00,45.00,Holiday
7,9.925
2,1, 1, 1, 0,22,45.00,60.00,Holiday
7,9.9
2,1, 1, 1, 0,22, 0.00,60.00,Holiday
8,9.9375
2,1, 1, 1, 0,23, 0.00,15.00,Holiday
7,9.65
2,1, 1, 1, 0,23,15.00,30.00,Holiday
7,9.4
2,1, 1, 1, 0,23,30.00,45.00,Holiday
7,9.15
2,1, 1, 1, 0,23,45.00,60.00,Holiday
7,8.9
2,1, 1, 1, 0,23, 0.00,60.00,Holiday
8,9.275
2,1, 1, 1, 0,24, 0.00,15.00,Holiday
7,8.625
2,1, 1, 1, 0,24,15.00,30.00,Holiday
7,8.35
2,1, 1, 1, 0,24,30.00,45.00,Holiday
7,8.075
2,1, 1, 1, 0,24,45.00,60.00,Holiday
7,7.8
2,1, 1, 1, 0,24, 0.00,60.00,Holiday
8,8.2125
2,2, 1, 2, 0, 1, 0.00,15.00,Friday
7,7.35
2,2, 1, 2, 0, 1,15.00,30.00,Friday
7,6.9
2,2, 1, 2, 0, 1,30.00,45.00,Friday
7,6.45
2,2, 1, 2, 0, 1,45.00,60.00,Friday
7,6.0
2,2, 1, 2, 0, 1, 0.00,60.00,Friday
8,6.675
2,2, 1, 2, 0, 2, 0.00,15.00,Friday
7,6.025
2,2, 1, 2, 0, 2,15.00,30.00,Friday
7,6.05
2,2, 1, 2, 0, 2,30.00,45.00,Friday
7,6.074999999999999
2,2, 1, 2, 0, 2,45.00,60.00,Friday
7,6.1
2,2, 1, 2, 0, 2, 0.00,60.00,Friday
8,6.0625
2,2, 1, 2, 0, 3, 0.00,15.00,Friday
7,6.2749999999999999
2,2, 1, 2, 0, 3,15.00,30.00,Friday
7,6.449999999999999
2,2, 1, 2, 0, 3,30.00,45.00,Friday
7,6.625
2,2, 1, 2, 0, 3,45.00,60.00,Friday
7,6.8
2,2, 1, 2, 0, 3, 0.00,60.00,Friday
8,6.5375
2,2, 1, 2, 0, 4, 0.00,15.00,Friday
7,6.375
2,2, 1, 2, 0, 4,15.00,30.00,Friday
7,5.949999999999999
2,2, 1, 2, 0, 4,30.00,45.00,Friday
7,5.5249999999999999
2,2, 1, 2, 0, 4,45.00,60.00,Friday
7,5.1
2,2, 1, 2, 0, 4, 0.00,60.00,Friday
8,5.737499999999999
2,2, 1, 2, 0, 5, 0.00,15.00,Friday
7,5.324999999999999
2,2, 1, 2, 0, 5,15.00,30.00,Friday
7,5.55
2,2, 1, 2, 0, 5,30.00,45.00,Friday
7,5.775
2,2, 1, 2, 0, 5,45.00,60.00,Friday
7,6.0
2,2, 1, 2, 0, 5, 0.00,60.00,Friday
8,5.6625
2,2, 1, 2, 0, 6, 0.00,15.00,Friday
7,6.0
2,2, 1, 2, 0, 6,15.00,30.00,Friday
7,6.0
2,2, 1, 2, 0, 6,30.00,45.00,Friday
7,6.0
2,2, 1, 2, 0, 6,45.00,60.00,Friday
7,6.0
2,2, 1, 2, 0, 6, 0.00,60.00,Friday
8,6.0
2,2, 1, 2, 0, 7, 0.00,15.00,Friday
7,6.0
2,2, 1, 2, 0, 7,15.00,30.00,Friday
7,6.0
2,2, 1, 2, 0, 7,30.00,45.00,Friday
7,6.0
2,2, 1, 2, 0, 7,45.00,60.00,Friday
7,6.0
2,2, 1, 2, 0, 7, 0.00,60.00,Friday
8,6.0
2,2, 1, 2, 0, 8, 0.00,15.00,Friday
7,6.05
2,2, 1, 2, 0, 8,15.00,30.00,Friday
7,6.1
2,2, 1, 2, 0, 8,30.00,45.00,Friday
7,6.15
2,2, 1, 2, 0, 8,45.00,60.00,Friday
7,6.2
2,2, 1, 2, 0, 8, 0.00,60.00,Friday
8,6.124999999999999
2,2, 1, 2, 0, 9, 0.00,15.00,Friday
7,6.65
2,2, 1, 2, 0, 9,15.00,30.00,Friday
7,7.1
2,2, 1, 2, 0, 9,30.00,45.00,Friday
7,7.55
2,2, 1, 2, 0, 9,45.00,60.00,Friday
7,8.0
2,2, 1, 2, 0, 9, 0.00,60.00,Friday
8,7.325
2,2, 1, 2, 0,10, 0.00,15.00,Friday
7,8.0
2,2, 1, 2, 0,10,15.00,30.00,Friday
7,8.0
2,2, 1, 2, 0,10,30.00,45.00,Friday
7,8.0
2,2, 1, 2, 0,10,45.00,60.00,Friday
7,8.0
2,2, 1, 2, 0,10, 0.00,60.00,Friday
8,8.0
2,2, 1, 2, 0,11, 0.00,15.00,Friday
7,8.025
2,2, 1, 2, 0,11,15.00,30.00,Friday
7,8.05
2,2, 1, 2, 0,11,30.00,45.00,Friday
7,8.075
2,2, 1, 2, 0,11,45.00,60.00,Friday
7,8.1
2,2, 1, 2, 0,11, 0.00,60.00,Friday
8,8.0625
2,2, 1, 2, 0,12, 0.00,15.00,Friday
7,8.35
2,2, 1, 2, 0,12,15.00,30.00,Friday
7,8.6
2,2, 1, 2, 0,12,30.00,45.00,Friday
7,8.85
2,2, 1, 2, 0,12,45.00,60.00,Friday
7,9.1
2,2, 1, 2, 0,12, 0.00,60.00,Friday
8,8.725
2,2, 1, 2, 0,13, 0.00,15.00,Friday
7,9.325
2,2, 1, 2, 0,13,15.00,30.00,Friday
7,9.55
2,2, 1, 2, 0,13,30.00,45.00,Friday
7,9.775
2,2, 1, 2, 0,13,45.00,60.00,Friday
7,10.0
2,2, 1, 2, 0,13, 0.00,60.00,Friday
8,9.6625
2,2, 1, 2, 0,14, 0.00,15.00,Friday
7,10.075
2,2, 1, 2, 0,14,15.00,30.00,Friday
7,10.15
2,2, 1, 2, 0,14,30.00,45.00,Friday
7,10.225000000000002
2,2, 1, 2, 0,14,45.00,60.00,Friday
7,10.3
2,2, 1, 2, 0,14, 0.00,60.00,Friday
8,10.1875
2,2, 1, 2, 0,15, 0.00,15.00,Friday
7,10.225000000000002
2,2, 1, 2, 0,15,15.00,30.00,Friday
7,10.15
2,2, 1, 2, 0,15,30.00,45.00,Friday
7,10.075
2,2, 1, 2, 0,15,45.00,60.00,Friday
7,10.0
2,2, 1, 2, 0,15, 0.00,60.00,Friday
8,10.1125
2,2, 1, 2, 0,16, 0.00,15.00,Friday
7,10.0
2,2, 1, 2, 0,16,15.00,30.00,Friday
7,10.0
2,2, 1, 2, 0,16,30.00,45.00,Friday
7,10.0
2,2, 1, 2, 0,16,45.00,60.00,Friday
7,10.0
2,2, 1, 2, 0,16, 0.00,60.00,Friday
8,10.0
2,2, 1, 2, 0,17, 0.00,15.00,Friday
7,9.925
2,2, 1, 2, 0,17,15.00,30.00,Friday
7,9.85
2,2, 1, 2, 0,17,30.00,45.00,Friday
7,9.774999999999999
2,2, 1, 2, 0,17,45.00,60.00,Friday
7,9.7
2,2, 1, 2, 0,17, 0.00,60.00,Friday
8,9.8125
2,2, 1, 2, 0,18, 0.00,15.00,Friday
7,9.625
2,2, 1, 2, 0,18,15.00,30.00,Friday
7,9.55
2,2, 1, 2, 0,18,30.00,45.00,Friday
7,9.475000000000002
2,2, 1, 2, 0,18,45.00,60.00,Friday
7,9.4
2,2, 1, 2, 0,18, 0.00,60.00,Friday
8,9.512500000000001
2,2, 1, 2, 0,19, 0.00,15.00,Friday
7,9.3
2,2, 1, 2, 0,19,15.00,30.00,Friday
7,9.2
2,2, 1, 2, 0,19,30.00,45.00,Friday
7,9.1
2,2, 1, 2, 0,19,45.00,60.00,Friday
7,9.0
2,2, 1, 2, 0,19, 0.00,60.00,Friday
8,9.15
2,2, 1, 2, 0,20, 0.00,15.00,Friday
7,8.975
2,2, 1, 2, 0,20,15.00,30.00,Friday
7,8.95
2,2, 1, 2, 0,20,30.00,45.00,Friday
7,8.925
2,2, 1, 2, 0,20,45.00,60.00,Friday
7,8.9
2,2, 1, 2, 0,20, 0.00,60.00,Friday
8,8.9375
2,2, 1, 2, 0,21, 0.00,15.00,Friday
7,8.675
2,2, 1, 2, 0,21,15.00,30.00,Friday
7,8.45
2,2, 1, 2, 0,21,30.00,45.00,Friday
7,8.225
2,2, 1, 2, 0,21,45.00,60.00,Friday
7,8.0
2,2, 1, 2, 0,21, 0.00,60.00,Friday
8,8.3375
2,2, 1, 2, 0,22, 0.00,15.00,Friday
7,7.975
2,2, 1, 2, 0,22,15.00,30.00,Friday
7,7.95
2,2, 1, 2, 0,22,30.00,45.00,Friday
7,7.925000000000001
2,2, 1, 2, 0,22,45.00,60.00,Friday
7,7.9
2,2, 1, 2, 0,22, 0.00,60.00,Friday
8,7.9375
2,2, 1, 2, 0,23, 0.00,15.00,Friday
7,7.700000000000001
2,2, 1, 2, 0,23,15.00,30.00,Friday
7,7.5
2,2, 1, 2, 0,23,30.00,45.00,Friday
7,7.299999999999999
2,2, 1, 2, 0,23,45.00,60.00,Friday
7,7.1
2,2, 1, 2, 0,23, 0.00,60.00,Friday
8,7.4
2,2, 1, 2, 0,24, 0.00,15.00,Friday
7,7.299999999999999
2,2, 1, 2, 0,24,15.00,30.00,Friday
7,7.5
2,2, 1, 2, 0,24,30.00,45.00,Friday
7,7.700000000000001
2,2, 1, 2, 0,24,45.00,60.00,Friday
7,7.9
2,2, 1, 2, 0,24, 0.00,60.00,Friday
8,7.6
2,3, 1, 3, 0, 1, 0.00,15.00,Saturday
7,7.625000000000001
2,3, 1, 3, 0, 1,15.00,30.00,Saturday
7,7.35
2,3, 1, 3, 0, 1,30.00,45.00,Saturday
7,7.074999999999999
2,3, 1, 3, 0, 1,45.00,60.00,Saturday
7,6.8
2,3, 1, 3, 0, 1, 0.00,60.00,Saturday
8,7.2125
2,3, 1, 3, 0, 2, 0.00,15.00,Saturday
7,6.35
2,3, 1, 3, 0, 2,15.00,30.00,Saturday
7,5.9
2,3, 1, 3, 0, 2,30.00,45.00,Saturday
7,5.45
2,3, 1, 3, 0, 2,45.00,60.00,Saturday
7,5.0
2,3, 1, 3, 0, 2, 0.00,60.00,Saturday
8,5.675
2,3, 1, 3, 0, 3, 0.00,15.00,Saturday
7,5.0
2,3, 1, 3, 0, 3,15.00,30.00,Saturday
7,5.0
2,3, 1, 3, 0, 3,30.00,45.00,Saturday
7,5.0
2,3, 1, 3, 0, 3,45.00,60.00,Saturday
7,5.0
2,3, 1, 3, 0, 3, 0.00,60.00,Saturday
8,5.0
2,3, 1, 3, 0, 4, 0.00,15.00,Saturday
7,4.875
2,3, 1, 3, 0, 4,15.00,30.00,Saturday
7,4.75
2,3, 1, 3, 0, 4,30.00,45.00,Saturday
7,4.625
2,3, 1, 3, 0, 4,45.00,60.00,Saturday
7,4.5
2,3, 1, 3, 0, 4, 0.00,60.00,Saturday
8,4.6875
2,3, 1, 3, 0, 5, 0.00,15.00,Saturday
7,3.625
2,3, 1, 3, 0, 5,15.00,30.00,Saturday
7,2.75
2,3, 1, 3, 0, 5,30.00,45.00,Saturday
7,1.875
2,3, 1, 3, 0, 5,45.00,60.00,Saturday
7,1.0
2,3, 1, 3, 0, 5, 0.00,60.00,Saturday
8,2.3125
2,3, 1, 3, 0, 6, 0.00,15.00,Saturday
7,1.0
2,3, 1, 3, 0, 6,15.00,30.00,Saturday
7,1.0
2,3, 1, 3, 0, 6,30.00,45.00,Saturday
7,1.0
2,3, 1, 3, 0, 6,45.00,60.00,Saturday
7,1.0
2,3, 1, 3, 0, 6, 0.00,60.00,Saturday
8,1.0
2,3, 1, 3, 0, 7, 0.00,15.00,Saturday
7,1.0
2,3, 1, 3, 0, 7,15.00,30.00,Saturday
7,1.0
2,3, 1, 3, 0, 7,30.00,45.00,Saturday
7,1.0
2,3, 1, 3, 0, 7,45.00,60.00,Saturday
7,1.0
2,3, 1, 3, 0, 7, 0.00,60.00,Saturday
8,1.0
2,3, 1, 3, 0, 8, 0.00,15.00,Saturday
7,0.975
2,3, 1, 3, 0, 8,15.00,30.00,Saturday
7,0.95
2,3, 1, 3, 0, 8,30.00,45.00,Saturday
7,0.925
2,3, 1, 3, 0, 8,45.00,60.00,Saturday
7,0.9
2,3, 1, 3, 0, 8, 0.00,60.00,Saturday
8,0.9374999999999999
2,3, 1, 3, 0, 9, 0.00,15.00,Saturday
7,0.8
2,3, 1, 3, 0, 9,15.00,30.00,Saturday
7,0.7
2,3, 1, 3, 0, 9,30.00,45.00,Saturday
7,0.6
2,3, 1, 3, 0, 9,45.00,60.00,Saturday
7,0.5
2,3, 1, 3, 0, 9, 0.00,60.00,Saturday
8,0.65
2,3, 1, 3, 0,10, 0.00,15.00,Saturday
7,1.475
2,3, 1, 3, 0,10,15.00,30.00,Saturday
7,2.45
2,3, 1, 3, 0,10,30.00,45.00,Saturday
7,3.4250000000000004
2,3, 1, 3, 0,10,45.00,60.00,Saturday
7,4.4
2,3, 1, 3, 0,10, 0.00,60.00,Saturday
8,2.9375
2,3, 1, 3, 0,11, 0.00,15.00,Saturday
7,5.075
2,3, 1, 3, 0,11,15.00,30.00,Saturday
7,5.75
2,3, 1, 3, 0,11,30.00,45.00,Saturday
7,6.424999999999999
2,3, 1, 3, 0,11,45.00,60.00,Saturday
7,7.1
2,3, 1, 3, 0,11, 0.00,60.00,Saturday
8,6.0875
2,3, 1, 3, 0,12, 0.00,15.00,Saturday
7,7.35
2,3, 1, 3, 0,12,15.00,30.00,Saturday
7,7.6
2,3, 1, 3, 0,12,30.00,45.00,Saturday
7,7.85
2,3, 1, 3, 0,12,45.00,60.00,Saturday
7,8.1
2,3, 1, 3, 0,12, 0.00,60.00,Saturday
8,7.725
2,3, 1, 3, 0,13, 0.00,15.00,Saturday
7,8.325
2,3, 1, 3, 0,13,15.00,30.00,Saturday
7,8.55
2,3, 1, 3, 0,13,30.00,45.00,Saturday
7,8.775
2,3, 1, 3, 0,13,45.00,60.00,Saturday
7,9.0
2,3, 1, 3, 0,13, 0.00,60.00,Saturday
8,8.6625
2,3, 1, 3, 0,14, 0.00,15.00,Saturday
7,9.0
2,3, 1, 3, 0,14,15.00,30.00,Saturday
7,9.0
2,3, 1, 3, 0,14,30.00,45.00,Saturday
7,9.0
2,3, 1, 3, 0,14,45.00,60.00,Saturday
7,9.0
2,3, 1, 3, 0,14, 0.00,60.00,Saturday
8,9.0
2,3, 1, 3, 0,15, 0.00,15.00,Saturday
7,9.025
2,3, 1, 3, 0,15,15.00,30.00,Saturday
7,9.05
2,3, 1, 3, 0,15,30.00,45.00,Saturday
7,9.075
2,3, 1, 3, 0,15,45.00,60.00,Saturday
7,9.1
2,3, 1, 3, 0,15, 0.00,60.00,Saturday
8,9.0625
2,3, 1, 3, 0,16, 0.00,15.00,Saturday
7,9.299999999999999
2,3, 1, 3, 0,16,15.00,30.00,Saturday
7,9.5
2,3, 1, 3, 0,16,30.00,45.00,Saturday
7,9.700000000000001
2,3, 1, 3, 0,16,45.00,60.00,Saturday
7,9.9
2,3, 1, 3, 0,16, 0.00,60.00,Saturday
8,9.6
2,3, 1, 3, 0,17, 0.00,15.00,Saturday
7,9.725000000000002
2,3, 1, 3, 0,17,15.00,30.00,Saturday
7,9.55
2,3, 1, 3, 0,17,30.00,45.00,Saturday
7,9.375
2,3, 1, 3, 0,17,45.00,60.00,Saturday
7,9.2
2,3, 1, 3, 0,17, 0.00,60.00,Saturday
8,9.4625
2,3, 1, 3, 0,18, 0.00,15.00,Saturday
7,9.0
2,3, 1, 3, 0,18,15.00,30.00,Saturday
7,8.8
2,3, 1, 3, 0,18,30.00,45.00,Saturday
7,8.600000000000002
2,3, 1, 3, 0,18,45.00,60.00,Saturday
7,8.4
2,3, 1, 3, 0,18, 0.00,60.00,Saturday
8,8.700000000000001
2,3, 1, 3, 0,19, 0.00,15.00,Saturday
7,8.275
2,3, 1, 3, 0,19,15.00,30.00,Saturday
7,8.15
2,3, 1, 3, 0,19,30.00,45.00,Saturday
7,8.025
2,3, 1, 3, 0,19,45.00,60.00,Saturday
7,7.9
2,3, 1, 3, 0,19, 0.00,60.00,Saturday
8,8.0875
2,3, 1, 3, 0,20, 0.00,15.00,Saturday
7,7.6000000000000009
2,3, 1, 3, 0,20,15.00,30.00,Saturday
7,7.300000000000001
2,3, 1, 3, 0,20,30.00,45.00,Saturday
7,7.0
2,3, 1, 3, 0,20,45.00,60.00,Saturday
7,6.7
2,3, 1, 3, 0,20, 0.00,60.00,Saturday
8,7.15
2,3, 1, 3, 0,21, 0.00,15.00,Saturday
7,6.025
2,3, 1, 3, 0,21,15.00,30.00,Saturday
7,5.35
2,3, 1, 3, 0,21,30.00,45.00,Saturday
7,4.675
2,3, 1, 3, 0,21,45.00,60.00,Saturday
7,4.0
2,3, 1, 3, 0,21, 0.00,60.00,Saturday
8,5.0125
2,3, 1, 3, 0,22, 0.00,15.00,Saturday
7,3.975
2,3, 1, 3, 0,22,15.00,30.00,Saturday
7,3.95
2,3, 1, 3, 0,22,30.00,45.00,Saturday
7,3.925
2,3, 1, 3, 0,22,45.00,60.00,Saturday
7,3.9
2,3, 1, 3, 0,22, 0.00,60.00,Saturday
8,3.9375000000000006
2,3, 1, 3, 0,23, 0.00,15.00,Saturday
7,3.675
2,3, 1, 3, 0,23,15.00,30.00,Saturday
7,3.45
2,3, 1, 3, 0,23,30.00,45.00,Saturday
7,3.225
2,3, 1, 3, 0,23,45.00,60.00,Saturday
7,3.0
2,3, 1, 3, 0,23, 0.00,60.00,Saturday
8,3.3375
2,3, 1, 3, 0,24, 0.00,15.00,Saturday
7,2.975
2,3, 1, 3, 0,24,15.00,30.00,Saturday
7,2.95
2,3, 1, 3, 0,24,30.00,45.00,Saturday
7,2.925
2,3, 1, 3, 0,24,45.00,60.00,Saturday
7,2.9
2,3, 1, 3, 0,24, 0.00,60.00,Saturday
8,2.9375000000000006
2,4, 1, 4, 0, 1, 0.00,15.00,Sunday
7,2.65
2,4, 1, 4, 0, 1,15.00,30.00,Sunday
7,2.4
2,4, 1, 4, 0, 1,30.00,45.00,Sunday
7,2.15
2,4, 1, 4, 0, 1,45.00,60.00,Sunday
7,1.9
2,4, 1, 4, 0, 1, 0.00,60.00,Sunday
8,2.275
2,4, 1, 4, 0, 2, 0.00,15.00,Sunday
7,1.6749999999999999
2,4, 1, 4, 0, 2,15.00,30.00,Sunday
7,1.45
2,4, 1, 4, 0, 2,30.00,45.00,Sunday
7,1.225
2,4, 1, 4, 0, 2,45.00,60.00,Sunday
7,1.0
2,4, 1, 4, 0, 2, 0.00,60.00,Sunday
8,1.3375
2,4, 1, 4, 0, 3, 0.00,15.00,Sunday
7,1.0
2,4, 1, 4, 0, 3,15.00,30.00,Sunday
7,1.0
2,4, 1, 4, 0, 3,30.00,45.00,Sunday
7,1.0
2,4, 1, 4, 0, 3,45.00,60.00,Sunday
7,1.0
2,4, 1, 4, 0, 3, 0.00,60.00,Sunday
8,1.0
2,4, 1, 4, 0, 4, 0.00,15.00,Sunday
7,0.975
2,4, 1, 4, 0, 4,15.00,30.00,Sunday
7,0.95
2,4, 1, 4, 0, 4,30.00,45.00,Sunday
7,0.925
2,4, 1, 4, 0, 4,45.00,60.00,Sunday
7,0.9
2,4, 1, 4, 0, 4, 0.00,60.00,Sunday
8,0.9374999999999999
2,4, 1, 4, 0, 5, 0.00,15.00,Sunday
7,0.7000000000000001
2,4, 1, 4, 0, 5,15.00,30.00,Sunday
7,0.5
2,4, 1, 4, 0, 5,30.00,45.00,Sunday
7,0.30000000000000007
2,4, 1, 4, 0, 5,45.00,60.00,Sunday
7,0.1
2,4, 1, 4, 0, 5, 0.00,60.00,Sunday
8,0.4000000000000001
2,4, 1, 4, 0, 6, 0.00,15.00,Sunday
7,0.325
2,4, 1, 4, 0, 6,15.00,30.00,Sunday
7,0.55
2,4, 1, 4, 0, 6,30.00,45.00,Sunday
7,0.775
2,4, 1, 4, 0, 6,45.00,60.00,Sunday
7,1.0
2,4, 1, 4, 0, 6, 0.00,60.00,Sunday
8,0.6625
2,4, 1, 4, 0, 7, 0.00,15.00,Sunday
7,0.95
2,4, 1, 4, 0, 7,15.00,30.00,Sunday
7,0.9
2,4, 1, 4, 0, 7,30.00,45.00,Sunday
7,0.8500000000000001
2,4, 1, 4, 0, 7,45.00,60.00,Sunday
7,0.8
2,4, 1, 4, 0, 7, 0.00,60.00,Sunday
8,0.875
2,4, 1, 4, 0, 8, 0.00,15.00,Sunday
7,0.3750000000000001
2,4, 1, 4, 0, 8,15.00,30.00,Sunday
7,-0.04999999999999999
2,4, 1, 4, 0, 8,30.00,45.00,Sunday
7,-0.47500000000000006
2,4, 1, 4, 0, 8,45.00,60.00,Sunday
7,-0.9
2,4, 1, 4, 0, 8, 0.00,60.00,Sunday
8,-0.26249999999999998
2,4, 1, 4, 0, 9, 0.00,15.00,Sunday
7,-0.625
2,4, 1, 4, 0, 9,15.00,30.00,Sunday
7,-0.35
2,4, 1, 4, 0, 9,30.00,45.00,Sunday
7,-0.07499999999999999
2,4, 1, 4, 0, 9,45.00,60.00,Sunday
7,0.2
2,4, 1, 4, 0, 9, 0.00,60.00,Sunday
8,-0.21250000000000003
2,4, 1, 4, 0,10, 0.00,15.00,Sunday
7,0.775
2,4, 1, 4, 0,10,15.00,30.00,Sunday
7,1.35
2,4, 1, 4, 0,10,30.00,45.00,Sunday
7,1.925
2,4, 1, 4, 0,10,45.00,60.00,Sunday
7,2.5
2,4, 1, 4, 0,10, 0.00,60.00,Sunday
8,1.6375
2,4, 1, 4, 0,11, 0.00,15.00,Sunday
7,3.4
2,4, 1, 4, 0,11,15.00,30.00,Sunday
7,4.3
2,4, 1, 4, 0,11,30.00,45.00,Sunday
7,5.199999999999999
2,4, 1, 4, 0,11,45.00,60.00,Sunday
7,6.1
2,4, 1, 4, 0,11, 0.00,60.00,Sunday
8,4.75
2,4, 1, 4, 0,12, 0.00,15.00,Sunday
7,6.35
2,4, 1, 4, 0,12,15.00,30.00,Sunday
7,6.6
2,4, 1, 4, 0,12,30.00,45.00,Sunday
7,6.85
2,4, 1, 4, 0,12,45.00,60.00,Sunday
7,7.1
2,4, 1, 4, 0,12, 0.00,60.00,Sunday
8,6.725
2,4, 1, 4, 0,13, 0.00,15.00,Sunday
7,7.324999999999999
2,4, 1, 4, 0,13,15.00,30.00,Sunday
7,7.55
2,4, 1, 4, 0,13,30.00,45.00,Sunday
7,7.775
2,4, 1, 4, 0,13,45.00,60.00,Sunday
7,8.0
2,4, 1, 4, 0,13, 0.00,60.00,Sunday
8,7.6625
2,4, 1, 4, 0,14, 0.00,15.00,Sunday
7,8.0
2,4, 1, 4, 0,14,15.00,30.00,Sunday
7,8.0
2,4, 1, 4, 0,14,30.00,45.00,Sunday
7,8.0
2,4, 1, 4, 0,14,45.00,60.00,Sunday
7,8.0
2,4, 1, 4, 0,14, 0.00,60.00,Sunday
8,8.0
2,4, 1, 4, 0,15, 0.00,15.00,Sunday
7,8.025
2,4, 1, 4, 0,15,15.00,30.00,Sunday
7,8.05
2,4, 1, 4, 0,15,30.00,45.00,Sunday
7,8.075
2,4, 1, 4, 0,15,45.00,60.00,Sunday
7,8.1
2,4, 1, 4, 0,15, 0.00,60.00,Sunday
8,8.0625
2,4, 1, 4, 0,16, 0.00,15.00,Sunday
7,8.35
2,4, 1, 4, 0,16,15.00,30.00,Sunday
7,8.6
2,4, 1, 4, 0,16,30.00,45.00,Sunday
7,8.85
2,4, 1, 4, 0,16,45.00,60.00,Sunday
7,9.1
2,4, 1, 4, 0,16, 0.00,60.00,Sunday
8,8.725
2,4, 1, 4, 0,17, 0.00,15.00,Sunday
7,9.2
2,4, 1, 4, 0,17,15.00,30.00,Sunday
7,9.3
2,4, 1, 4, 0,17,30.00,45.00,Sunday
7,9.4
2,4, 1, 4, 0,17,45.00,60.00,Sunday
7,9.5
2,4, 1, 4, 0,17, 0.00,60.00,Sunday
8,9.35
2,4, 1, 4, 0,18, 0.00,15.00,Sunday
7,9.35
2,4, 1, 4, 0,18,15.00,30.00,Sunday
7,9.2
2,4, 1, 4, 0,18,30.00,45.00,Sunday
7,9.05
2,4, 1, 4, 0,18,45.00,60.00,Sunday
7,8.9
2,4, 1, 4, 0,18, 0.00,60.00,Sunday
8,9.125
2,4, 1, 4, 0,19, 0.00,15.00,Sunday
7,8.65
2,4, 1, 4, 0,19,15.00,30.00,Sunday
7,8.4
2,4, 1, 4, 0,19,30.00,45.00,Sunday
7,8.15
2,4, 1, 4, 0,19,45.00,60.00,Sunday
7,7.9
2,4, 1, 4, 0,19, 0.00,60.00,Sunday
8,8.275
2,4, 1, 4, 0,20, 0.00,15.00,Sunday
7,7.675000000000001
2,4, 1, 4, 0,20,15.00,30.00,Sunday
7,7.45
2,4, 1, 4, 0,20,30.00,45.00,Sunday
7,7.225
2,4, 1, 4, 0,20,45.00,60.00,Sunday
7,7.0
2,4, 1, 4, 0,20, 0.00,60.00,Sunday
8,7.3375
2,4, 1, 4, 0,21, 0.00,15.00,Sunday
7,7.0
2,4, 1, 4, 0,21,15.00,30.00,Sunday
7,7.0
2,4, 1, 4, 0,21,30.00,45.00,Sunday
7,7.0
2,4, 1, 4, 0,21,45.00,60.00,Sunday
7,7.0
2,4, 1, 4, 0,21, 0.00,60.00,Sunday
8,7.0
2,4, 1, 4, 0,22, 0.00,15.00,Sunday
7,7.0
2,4, 1, 4, 0,22,15.00,30.00,Sunday
7,7.0
2,4, 1, 4, 0,22,30.00,45.00,Sunday
7,7.0
2,4, 1, 4, 0,22,45.00,60.00,Sunday
7,7.0
2,4, 1, 4, 0,22, 0.00,60.00,Sunday
8,7.0
2,4, 1, 4, 0,23, 0.00,15.00,Sunday
7,6.925
2,4, 1, 4, 0,23,15.00,30.00,Sunday
7,6.85
2,4, 1, 4, 0,23,30.00,45.00,Sunday
7,6.775
2,4, 1, 4, 0,23,45.00,60.00,Sunday
7,6.7
2,4, 1, 4, 0,23, 0.00,60.00,Sunday
8,6.812499999999999
2,4, 1, 4, 0,24, 0.00,15.00,Sunday
7,6.1000000000000009
2,4, 1, 4, 0,24,15.00,30.00,Sunday
7,5.5
2,4, 1, 4, 0,24,30.00,45.00,Sunday
7,4.8999999999999999
2,4, 1, 4, 0,24,45.00,60.00,Sunday
7,4.3
2,4, 1, 4, 0,24, 0.00,60.00,Sunday
8,5.2
2,5, 1, 5, 0, 1, 0.00,15.00,Monday
7,4.925
2,5, 1, 5, 0, 1,15.00,30.00,Monday
7,5.55
2,5, 1, 5, 0, 1,30.00,45.00,Monday
7,6.175
2,5, 1, 5, 0, 1,45.00,60.00,Monday
7,6.8
2,5, 1, 5, 0, 1, 0.00,60.00,Monday
8,5.8625
2,5, 1, 5, 0, 2, 0.00,15.00,Monday
7,6.35
2,5, 1, 5, 0, 2,15.00,30.00,Monday
7,5.9
2,5, 1, 5, 0, 2,30.00,45.00,Monday
7,5.45
2,5, 1, 5, 0, 2,45.00,60.00,Monday
7,5.0
2,5, 1, 5, 0, 2, 0.00,60.00,Monday
8,5.675
2,5, 1, 5, 0, 3, 0.00,15.00,Monday
7,4.975
2,5, 1, 5, 0, 3,15.00,30.00,Monday
7,4.95
2,5, 1, 5, 0, 3,30.00,45.00,Monday
7,4.925000000000001
2,5, 1, 5, 0, 3,45.00,60.00,Monday
7,4.9
2,5, 1, 5, 0, 3, 0.00,60.00,Monday
8,4.9375
2,5, 1, 5, 0, 4, 0.00,15.00,Monday
7,4.675000000000001
2,5, 1, 5, 0, 4,15.00,30.00,Monday
7,4.45
2,5, 1, 5, 0, 4,30.00,45.00,Monday
7,4.225
2,5, 1, 5, 0, 4,45.00,60.00,Monday
7,4.0
2,5, 1, 5, 0, 4, 0.00,60.00,Monday
8,4.3375
2,5, 1, 5, 0, 5, 0.00,15.00,Monday
7,4.0
2,5, 1, 5, 0, 5,15.00,30.00,Monday
7,4.0
2,5, 1, 5, 0, 5,30.00,45.00,Monday
7,4.0
2,5, 1, 5, 0, 5,45.00,60.00,Monday
7,4.0
2,5, 1, 5, 0, 5, 0.00,60.00,Monday
8,4.0
2,5, 1, 5, 0, 6, 0.00,15.00,Monday
7,3.95
2,5, 1, 5, 0, 6,15.00,30.00,Monday
7,3.9
2,5, 1, 5, 0, 6,30.00,45.00,Monday
7,3.8499999999999998
2,5, 1, 5, 0, 6,45.00,60.00,Monday
7,3.8
2,5, 1, 5, 0, 6, 0.00,60.00,Monday
8,3.875
2,5, 1, 5, 0, 7, 0.00,15.00,Monday
7,3.3499999999999998
2,5, 1, 5, 0, 7,15.00,30.00,Monday
7,2.9
2,5, 1, 5, 0, 7,30.00,45.00,Monday
7,2.45
2,5, 1, 5, 0, 7,45.00,60.00,Monday
7,2.0
2,5, 1, 5, 0, 7, 0.00,60.00,Monday
8,2.675
2,5, 1, 5, 0, 8, 0.00,15.00,Monday
7,2.05
2,5, 1, 5, 0, 8,15.00,30.00,Monday
7,2.1
2,5, 1, 5, 0, 8,30.00,45.00,Monday
7,2.1500000000000005
2,5, 1, 5, 0, 8,45.00,60.00,Monday
7,2.2
2,5, 1, 5, 0, 8, 0.00,60.00,Monday
8,2.125
2,5, 1, 5, 0, 9, 0.00,15.00,Monday
7,2.725
2,5, 1, 5, 0, 9,15.00,30.00,Monday
7,3.25
2,5, 1, 5, 0, 9,30.00,45.00,Monday
7,3.7749999999999996
2,5, 1, 5, 0, 9,45.00,60.00,Monday
7,4.3
2,5, 1, 5, 0, 9, 0.00,60.00,Monday
8,3.5125
2,5, 1, 5, 0,10, 0.00,15.00,Monday
7,5.0249999999999999
2,5, 1, 5, 0,10,15.00,30.00,Monday
7,5.75
2,5, 1, 5, 0,10,30.00,45.00,Monday
7,6.4750000000000009
2,5, 1, 5, 0,10,45.00,60.00,Monday
7,7.2
2,5, 1, 5, 0,10, 0.00,60.00,Monday
8,6.1125
2,5, 1, 5, 0,11, 0.00,15.00,Monday
7,7.7
2,5, 1, 5, 0,11,15.00,30.00,Monday
7,8.2
2,5, 1, 5, 0,11,30.00,45.00,Monday
7,8.7
2,5, 1, 5, 0,11,45.00,60.00,Monday
7,9.2
2,5, 1, 5, 0,11, 0.00,60.00,Monday
8,8.45
2,5, 1, 5, 0,12, 0.00,15.00,Monday
7,9.674999999999999
2,5, 1, 5, 0,12,15.00,30.00,Monday
7,10.149999999999999
2,5, 1, 5, 0,12,30.00,45.00,Monday
7,10.625
2,5, 1, 5, 0,12,45.00,60.00,Monday
7,11.1
2,5, 1, 5, 0,12, 0.00,60.00,Monday
8,10.3875
2,5, 1, 5, 0,13, 0.00,15.00,Monday
7,11.35
2,5, 1, 5, 0,13,15.00,30.00,Monday
7,11.6
2,5, 1, 5, 0,13,30.00,45.00,Monday
7,11.85
2,5, 1, 5, 0,13,45.00,60.00,Monday
7,12.1
2,5, 1, 5, 0,13, 0.00,60.00,Monday
8,11.725
2,5, 1, 5, 0,14, 0.00,15.00,Monday
7,12.325
2,5, 1, 5, 0,14,15.00,30.00,Monday
7,12.55
2,5, 1, 5, 0,14,30.00,45.00,Monday
7,12.775
2,5, 1, 5, 0,14,45.00,60.00,Monday
7,13.0
2,5, 1, 5, 0,14, 0.00,60.00,Monday
8,12.6625
2,5, 1, 5, 0,15, 0.00,15.00,Monday
7,13.0
2,5, 1, 5, 0,15,15.00,30.00,Monday
7,13.0
2,5, 1, 5, 0,15,30.00,45.00,Monday
7,13.0
2,5, 1, 5, 0,15,45.00,60.00,Monday
7,13.0
2,5, 1, 5, 0,15, 0.00,60.00,Monday
8,13.0
2,5, 1, 5, 0,16, 0.00,15.00,Monday
7,13.0
2,5, 1, 5, 0,16,15.00,30.00,Monday
7,13.0
2,5, 1, 5, 0,16,30.00,45.00,Monday
7,13.0
2,5, 1, 5, 0,16,45.00,60.00,Monday
7,13.0
2,5, 1, 5, 0,16, 0.00,60.00,Monday
8,13.0
2,5, 1, 5, 0,17, 0.00,15.00,Monday
7,12.825
2,5, 1, 5, 0,17,15.00,30.00,Monday
7,12.65
2,5, 1, 5, 0,17,30.00,45.00,Monday
7,12.475000000000002
2,5, 1, 5, 0,17,45.00,60.00,Monday
7,12.3
2,5, 1, 5, 0,17, 0.00,60.00,Monday
8,12.5625
2,5, 1, 5, 0,18, 0.00,15.00,Monday
7,11.925
2,5, 1, 5, 0,18,15.00,30.00,Monday
7,11.55
2,5, 1, 5, 0,18,30.00,45.00,Monday
7,11.175
2,5, 1, 5, 0,18,45.00,60.00,Monday
7,10.8
2,5, 1, 5, 0,18, 0.00,60.00,Monday
8,11.3625
2,5, 1, 5, 0,19, 0.00,15.00,Monday
7,10.325000000000001
2,5, 1, 5, 0,19,15.00,30.00,Monday
7,9.850000000000002
2,5, 1, 5, 0,19,30.00,45.00,Monday
7,9.375
2,5, 1, 5, 0,19,45.00,60.00,Monday
7,8.9
2,5, 1, 5, 0,19, 0.00,60.00,Monday
8,9.6125
2,5, 1, 5, 0,20, 0.00,15.00,Monday
7,8.65
2,5, 1, 5, 0,20,15.00,30.00,Monday
7,8.4
2,5, 1, 5, 0,20,30.00,45.00,Monday
7,8.15
2,5, 1, 5, 0,20,45.00,60.00,Monday
7,7.9
2,5, 1, 5, 0,20, 0.00,60.00,Monday
8,8.275
2,5, 1, 5, 0,21, 0.00,15.00,Monday
7,7.675000000000001
2,5, 1, 5, 0,21,15.00,30.00,Monday
7,7.45
2,5, 1, 5, 0,21,30.00,45.00,Monday
7,7.225
2,5, 1, 5, 0,21,45.00,60.00,Monday
7,7.0
2,5, 1, 5, 0,21, 0.00,60.00,Monday
8,7.3375
2,5, 1, 5, 0,22, 0.00,15.00,Monday
7,7.0
2,5, 1, 5, 0,22,15.00,30.00,Monday
7,7.0
2,5, 1, 5, 0,22,30.00,45.00,Monday
7,7.0
2,5, 1, 5, 0,22,45.00,60.00,Monday
7,7.0
2,5, 1, 5, 0,22, 0.00,60.00,Monday
8,7.0
2,5, 1, 5, 0,23, 0.00,15.00,Monday
7,7.025
2,5, 1, 5, 0,23,15.00,30.00,Monday
7,7.05
2,5, 1, 5, 0,23,30.00,45.00,Monday
7,7.074999999999999
2,5, 1, 5, 0,23,45.00,60.00,Monday
7,7.1
2,5, 1, 5, 0,23, 0.00,60.00,Monday
8,7.0625
2,5, 1, 5, 0,24, 0.00,15.00,Monday
7,7.324999999999999
2,5, 1, 5, 0,24,15.00,30.00,Monday
7,7.55
2,5, 1, 5, 0,24,30.00,45.00,Monday
7,7.775
2,5, 1, 5, 0,24,45.00,60.00,Monday
7,8.0
2,5, 1, 5, 0,24, 0.00,60.00,Monday
8,7.6625
2,6, 1, 6, 0, 1, 0.00,15.00,Tuesday
7,8.0
2,6, 1, 6, 0, 1,15.00,30.00,Tuesday
7,8.0
2,6, 1, 6, 0, 1,30.00,45.00,Tuesday
7,8.0
2,6, 1, 6, 0, 1,45.00,60.00,Tuesday
7,8.0
2,6, 1, 6, 0, 1, 0.00,60.00,Tuesday
8,8.0
2,6, 1, 6, 0, 2, 0.00,15.00,Tuesday
7,7.975
2,6, 1, 6, 0, 2,15.00,30.00,Tuesday
7,7.95
2,6, 1, 6, 0, 2,30.00,45.00,Tuesday
7,7.925000000000001
2,6, 1, 6, 0, 2,45.00,60.00,Tuesday
7,7.9
2,6, 1, 6, 0, 2, 0.00,60.00,Tuesday
8,7.9375
2,6, 1, 6, 0, 3, 0.00,15.00,Tuesday
7,7.675000000000001
2,6, 1, 6, 0, 3,15.00,30.00,Tuesday
7,7.45
2,6, 1, 6, 0, 3,30.00,45.00,Tuesday
7,7.225
2,6, 1, 6, 0, 3,45.00,60.00,Tuesday
7,7.0
2,6, 1, 6, 0, 3, 0.00,60.00,Tuesday
8,7.3375
2,6, 1, 6, 0, 4, 0.00,15.00,Tuesday
7,7.0
2,6, 1, 6, 0, 4,15.00,30.00,Tuesday
7,7.0
2,6, 1, 6, 0, 4,30.00,45.00,Tuesday
7,7.0
2,6, 1, 6, 0, 4,45.00,60.00,Tuesday
7,7.0
2,6, 1, 6, 0, 4, 0.00,60.00,Tuesday
8,7.0
2,6, 1, 6, 0, 5, 0.00,15.00,Tuesday
7,7.0
2,6, 1, 6, 0, 5,15.00,30.00,Tuesday
7,7.0
2,6, 1, 6, 0, 5,30.00,45.00,Tuesday
7,7.0
2,6, 1, 6, 0, 5,45.00,60.00,Tuesday
7,7.0
2,6, 1, 6, 0, 5, 0.00,60.00,Tuesday
8,7.0
2,6, 1, 6, 0, 6, 0.00,15.00,Tuesday
7,7.0
2,6, 1, 6, 0, 6,15.00,30.00,Tuesday
7,7.0
2,6, 1, 6, 0, 6,30.00,45.00,Tuesday
7,7.0
2,6, 1, 6, 0, 6,45.00,60.00,Tuesday
7,7.0
2,6, 1, 6, 0, 6, 0.00,60.00,Tuesday
8,7.0
2,6, 1, 6, 0, 7, 0.00,15.00,Tuesday
7,7.0
2,6, 1, 6, 0, 7,15.00,30.00,Tuesday
7,7.0
2,6, 1, 6, 0, 7,30.00,45.00,Tuesday
7,7.0
2,6, 1, 6, 0, 7,45.00,60.00,Tuesday
7,7.0
2,6, 1, 6, 0, 7, 0.00,60.00,Tuesday
8,7.0
2,6, 1, 6, 0, 8, 0.00,15.00,Tuesday
7,7.025
2,6, 1, 6, 0, 8,15.00,30.00,Tuesday
7,7.05
2,6, 1, 6, 0, 8,30.00,45.00,Tuesday
7,7.074999999999999
2,6, 1, 6, 0, 8,45.00,60.00,Tuesday
7,7.1
2,6, 1, 6, 0, 8, 0.00,60.00,Tuesday
8,7.0625
2,6, 1, 6, 0, 9, 0.00,15.00,Tuesday
7,7.324999999999999
2,6, 1, 6, 0, 9,15.00,30.00,Tuesday
7,7.55
2,6, 1, 6, 0, 9,30.00,45.00,Tuesday
7,7.775
2,6, 1, 6, 0, 9,45.00,60.00,Tuesday
7,8.0
2,6, 1, 6, 0, 9, 0.00,60.00,Tuesday
8,7.6625
2,6, 1, 6, 0,10, 0.00,15.00,Tuesday
7,8.025
2,6, 1, 6, 0,10,15.00,30.00,Tuesday
7,8.05
2,6, 1, 6, 0,10,30.00,45.00,Tuesday
7,8.075
2,6, 1, 6, 0,10,45.00,60.00,Tuesday
7,8.1
2,6, 1, 6, 0,10, 0.00,60.00,Tuesday
8,8.0625
2,6, 1, 6, 0,11, 0.00,15.00,Tuesday
7,8.325
2,6, 1, 6, 0,11,15.00,30.00,Tuesday
7,8.55
2,6, 1, 6, 0,11,30.00,45.00,Tuesday
7,8.775
2,6, 1, 6, 0,11,45.00,60.00,Tuesday
7,9.0