Program Version,EnergyPlus, Version 9.0.1-bb7ca4f0da, YMD=2019.12.17 15:53
1,5,Environment Title[],Latitude[deg],Longitude[deg],Time Zone[],Elevation[m]
2,8,Day of Simulation[],Month[],Day of Month[],DST Indicator[1=yes 0=no],Hour[],StartMinute[],EndMinute[],DayType
3,5,Cumulative Day of Simulation[],Month[],Day of Month[],DST Indicator[1=yes 0=no],DayType  ! When Daily Meters Requested
4,2,Cumulative Days of Simulation[],Month[]  ! When Monthly Meters Requested
5,1,Cumulative Days of Simulation[] ! When Run Period Meters Requested
6,1,Calendar Year of Simulation[] ! When Annual Meters Requested
2228,1,WaterSystems:Electricity [J] !Hourly
47,1,InteriorLights:Electricity [J] !Hourly
346,1,NonComplianceLtg:InteriorLights:Electricity [J] !Hourly
11,1,Electricity:Facility [J] !Hourly
993,1,InteriorEquipment:Electricity [J] !Hourly
4114,1,Fans:Electricity [J] !Hourly
4473,1,Pumps:Electricity [J] !Hourly
4210,1,Heating:Electricity [J] !Hourly
4348,1,Cooling:Electricity [J] !Hourly
1497,1,Gas:Facility [J] !Hourly
1533,1,InteriorEquipment:Gas [J] !Hourly
4236,1,Heating:Gas [J] !Hourly
2366,1,WaterSystems:Gas [J] !Hourly
1017,1,Receptacle:InteriorEquipment:Electricity [J] !Hourly
71,1,ComplianceLtg:InteriorLights:Electricity [J] !Hourly
1557,1,Receptacle:InteriorEquipment:Gas [J] !Hourly
4126,1,General:Fans:Electricity [J] !Hourly
4162,1,ProcessMotors:Fans:Electricity [J] !Hourly
End of Data Dictionary
1,OAKLAND_724930_CZ2010,  37.72,-122.22,  -8.00,   2.00
2,1, 1, 1, 0, 1, 0.00,60.00,Holiday
11,66341734.27394022
47,24156278.99999996
71,4835078.999999999
346,19321199.999999968
993,18722069.99999997
1017,18722069.99999997
1497,1042785.2739396659
1533,0.0
1557,0.0
2228,805678.8285298817
2366,1042785.2739396659
4114,22657706.445410395
4126,8458341.339612136
4162,14199365.105798256
4210,0.0
4236,0.0
4348,0.0
4473,0.0
2,1, 1, 1, 0, 2, 0.00,60.00,Holiday
11,67147204.39189855
47,24156278.99999996
71,4835078.999999999
346,19321199.999999968
993,18722069.99999997
1017,18722069.99999997
1497,1042773.4128829227
1533,0.0
1557,0.0
2228,1611148.9464882045
2366,1042773.4128829227
4114,22657706.445410395
4126,8458341.339612136
4162,14199365.105798256
4210,0.0
4236,0.0
4348,0.0
4473,0.0
2,1, 1, 1, 0, 3, 0.00,60.00,Holiday
11,67147231.88105083
47,24156278.99999996
71,4835078.999999999
346,19321199.999999968
993,18722069.99999997
1017,18722069.99999997
1497,1303444.6649411242
1533,0.0
1557,0.0
2228,1611176.4356404823
2366,1303444.6649411242
4114,22657706.445410395
4126,8458341.339612136
4162,14199365.105798256
4210,0.0
4236,0.0
4348,0.0
4473,0.0
2,1, 1, 1, 0, 4, 0.00,60.00,Holiday
11,66337636.691555779
47,24156278.99999996
71,4835078.999999999
346,19321199.999999968
993,18722069.99999997
1017,18722069.99999997
1497,1037337.7968038314
1533,0.0
1557,0.0
2228,801581.246145438
2366,1037337.7968038314
4114,22657706.445410395
4126,8458341.339612136
4162,14199365.105798256
4210,0.0
4236,0.0
4348,0.0
4473,0.0
2,1, 1, 1, 0, 5, 0.00,60.00,Holiday
11,67154946.81663752
47,24156278.99999996
71,4835078.999999999
346,19321199.999999968
993,18722069.99999997
1017,18722069.99999997
1497,1570369.5375500562
1533,0.0
1557,0.0
2228,1595324.0417141966
2366,1037576.5064945298
4114,22681273.77492337
4126,8458341.339612136
4162,14199365.105798256
4210,0.0
4236,532793.0310555261
4348,0.0
4473,0.0
2,1, 1, 1, 0, 6, 0.00,60.00,Holiday
11,138303738.43485839
47,52754678.99999992
71,4835078.999999999
346,47919599.99999992
993,47320469.999999929
1017,47320469.999999929
1497,1679691.3232151923
1533,0.0
1557,0.0
2228,1598013.9221880562
2366,1305489.3929224623
4114,26373150.032056884
4126,12167766.717788158
4162,14199365.105798256
4210,10232542.996682398
4236,374201.93029273019
4348,0.0
4473,24882.483931090734
2,1, 1, 1, 0, 7, 0.00,60.00,Holiday
11,195147219.2307471
47,74203478.99999988
71,4835078.999999999
346,69368399.9999999
993,68769269.9999999
1017,68769269.9999999
1497,305920284.87676176
1533,28597212.921243654
1557,28597212.921243654
2228,805526.0461108822
2366,1042791.8269705623
4114,41228011.05034642
4126,14865772.907299534
4162,14199365.105798256
4210,10036439.721489476
4236,276280280.12854757
4348,0.0
4473,104493.41280053929
2,1, 1, 1, 0, 8, 0.00,60.00,Holiday
11,190766676.4546215
47,74200608.60198428
71,4832208.601984404
346,69368399.9999999
993,68769269.9999999
1017,68769269.9999999
1497,175955939.88380537
1533,28597212.921243654
1557,28597212.921243654
2228,2478520.2898131858
2366,1323251.2115915539
4114,34888169.44081227
4126,14287472.942453273
4162,14199365.105798256
4210,10330593.814248685
4236,146035475.75097016
4348,0.0
4473,99514.30776321145
2,1, 1, 1, 0, 9, 0.00,60.00,Holiday
11,207280521.88613827
47,77865889.21631558
71,8497489.216315713
346,69368399.9999999
993,72641339.99999988
1017,72641339.99999988
1497,467278077.8841231
1533,0.0
1557,0.0
2228,2521552.6194726179
2366,1336870.0032209093
4114,43130160.76039715
4126,24076525.776009688
4162,14199365.105798256
4210,10252761.28401905
4236,465941207.8809022
4348,0.0
4473,868818.0059339184
2,1, 1, 1, 0,10, 0.00,60.00,Holiday
11,198625292.57839156
47,77826450.95352715
71,8458050.95352728
346,69368399.9999999
993,72641339.99999988
1017,72641339.99999988
1497,366753895.8102966
1533,0.0
1557,0.0
2228,2565979.2864547099
2366,1350392.3069318005
4114,35263510.103139448
4126,16582899.071818036
4162,14199365.105798256
4210,10042889.420055602
4236,365403503.5033648
4348,0.0
4473,285122.81521472087
2,1, 1, 1, 0,11, 0.00,60.00,Holiday
11,204333180.50980053
47,78180106.1888814
71,30260506.18888143
346,47919599.99999992
993,74424959.99999996
1017,74424959.99999996
1497,293856317.60024306
1533,0.0
1557,0.0
2228,5915849.48298002
2366,2049062.8384463583
4114,36018280.231953497
4126,16519577.605455207
4162,14199365.105798256
4210,9582069.34512814
4236,291807254.7617967
4348,0.0
4473,211915.26085756755
2,1, 1, 1, 0,12, 0.00,60.00,Holiday
11,203577804.05381678
47,78099094.36329484
71,30179494.363294875
346,47919599.99999992
993,74424959.99999996
1017,74424959.99999996
1497,271459150.6387147
1533,11438885.168497468
1557,11438885.168497468
2228,6039403.896086605
2366,2380305.8892060278
4114,35361509.07432812
4126,16519577.605455207
4162,14199365.105798256
4210,9447074.696180735
4236,257639959.58101119
4348,0.0
4473,205762.02392659038
2,1, 1, 1, 0,13, 0.00,60.00,Holiday
11,231518477.5303711
47,89011518.37661559
71,41091918.37661559
346,47919599.99999992
993,89913239.99999997
1017,89913239.99999997
1497,223847313.43202604
1533,11438885.168497468
1557,11438885.168497468
2228,7433390.886809979
2366,2423345.457313641
4114,35126515.39723463
4126,16519577.605455207
4162,14199365.105798256
4210,9833222.1595405
4236,209985082.80621497
4348,0.0
4473,200590.71017049085
2,1, 1, 1, 0,14, 0.00,60.00,Holiday
11,230843452.62690083
47,89110754.24198337
71,41191154.241983387
346,47919599.99999992
993,89913239.99999997
1017,89913239.99999997
1497,183554370.161781
1533,0.0
1557,0.0
2228,7434080.294894256
2366,2461129.888556321
4114,34626823.98774127
4126,16519577.605455207
4162,14199365.105798256
4210,9559151.59629903
4236,181093240.27322469
4348,0.0
4473,199402.50598301367
2,1, 1, 1, 0,15, 0.00,60.00,Holiday
11,229826996.06819398
47,89163584.23438885
71,41243984.23438886
346,47919599.99999992
993,89913239.99999997
1017,89913239.99999997
1497,163643383.54905955
1533,0.0
1557,0.0
2228,6972419.9767795079
2366,2150489.289090277
4114,34306419.49295048
4126,16519577.605455207
4162,14199365.105798256
4210,9272583.254676303
4236,161492894.25996927
4348,0.0
4473,198749.109398945
2,1, 1, 1, 0,16, 0.00,60.00,Holiday
11,228688994.42823256
47,89062012.1973739
71,41142412.19737391
346,47919599.99999992
993,89913239.99999997
1017,89913239.99999997
1497,144396296.7272601
1533,0.0
1557,0.0
2228,6605561.718963804
2366,2423530.156468954
4114,33596442.48112863
4126,16519577.605455207
4162,14199365.105798256
4210,9313103.705241986
4236,141972766.57079114
4348,0.0
4473,198634.32552434196
2,1, 1, 1, 0,17, 0.00,60.00,Holiday
11,230369755.01354433
47,89627792.82797772
71,41708192.827977757
346,47919599.99999992
993,89913239.99999997
1017,89913239.99999997
1497,177004656.3892237
1533,28597212.921243654
1557,28597212.921243654
2228,7515357.697187901
2366,2451308.3686738286
4114,33497148.18921616
4126,16519577.605455207
4162,14199365.105798256
4210,9617311.72438839
4236,145956135.0993062
4348,0.0
4473,198904.574774228
2,1, 1, 1, 0,18, 0.00,60.00,Holiday
11,204602180.99445836
47,78647111.99999994
71,30727511.99999999
346,47919599.99999992
993,74424959.99999996
1017,74424959.99999996
1497,233769432.1864385
1533,28597212.921243654
1557,28597212.921243654
2228,7273629.106797595
2366,2204196.7204118848
4114,34127379.7163027
4126,16519577.605455207
4162,14199365.105798256
4210,9927445.572912567
4236,202968022.54478295
4348,0.0
4473,201654.59844564656
2,1, 1, 1, 0,19, 0.00,60.00,Holiday
11,242917390.2374242
47,106749035.99999982
71,15931835.999999995
346,90817199.99999984
993,101834279.99999984
1017,101834279.99999984
1497,218911571.50789113
1533,28597212.921243654
1557,28597212.921243654
2228,4736727.47843621
2366,1912375.3158878883
4114,29357955.352016909
4126,14487417.026481722
4162,14199365.105798256
4210,31014.924444829172
4236,188401983.2707596
4348,0.0
4473,208376.48252645919
2,1, 1, 1, 0,20, 0.00,60.00,Holiday
11,271619965.79371717
47,124250678.9999998
71,4835078.999999999
346,119415599.9999998
993,118816469.99999982
1017,118816469.99999982
1497,4204742.704621072
1533,0.0
1557,0.0
2228,5798762.100268608
2366,2026574.5076863203
4114,22754054.693448858
4126,8458341.339612136
4162,14199365.105798256
4210,0.0
4236,2178168.1969347519
4348,0.0
4473,0.0
2,1, 1, 1, 0,21, 0.00,60.00,Holiday
11,298372093.7635974
47,138549878.9999998
71,4835078.999999999
346,133714799.99999979
993,133115669.99999979
1017,133115669.99999979
1497,2809806.9880314965
1533,0.0
1557,0.0
2228,3998910.0895753626
2366,1681066.1347021922
4114,22707634.674022389
4126,8458341.339612136
4162,14199365.105798256
4210,0.0
4236,1128740.8533293042
4348,0.0
4473,0.0
2,1, 1, 1, 0,22, 0.00,60.00,Holiday
11,268992912.0133173
47,124250678.9999998
71,4835078.999999999
346,119415599.9999998
993,118816469.99999982
1017,118816469.99999982
1497,4378222.908867996
1533,0.0
1557,0.0
2228,3147316.5147214059
2366,1648623.124684916
4114,22778446.49859617
4126,8458341.339612136
4162,14199365.105798256
4210,0.0
4236,2729599.7841830805
4348,0.0
4473,0.0
2,1, 1, 1, 0,23, 0.00,60.00,Holiday
11,211006547.4404517
47,95652278.99999984
71,4835078.999999999
346,90817199.99999984
993,90218069.99999985
1017,90218069.99999985
1497,1323208.3882931735
1533,0.0
1557,0.0
2228,2478491.995041609
2366,1323208.3882931735
4114,22657706.445410395
4126,8458341.339612136
4162,14199365.105798256
4210,0.0
4236,0.0
4348,0.0
4473,0.0
2,1, 1, 1, 0,24, 0.00,60.00,Holiday
11,123531798.4740066
47,52754678.99999992
71,4835078.999999999
346,47919599.99999992
993,47320469.999999929
1017,47320469.999999929
1497,1037753.1350243609
1533,0.0
1557,0.0
2228,798943.0285962455
2366,1037753.1350243609
4114,22657706.445410395
4126,8458341.339612136
4162,14199365.105798256
4210,0.0
4236,0.0
4348,0.0
4473,0.0
2,2, 1, 2, 0, 1, 0.00,60.00,Friday
11,66322096.66287955
47,24156278.99999996
71,4835078.999999999
346,19321199.999999968
993,18722069.99999997
1017,18722069.99999997
1497,1029500.7317837633
1533,0.0
1557,0.0
2228,786041.217469204
2366,1029500.7317837633
4114,22657706.445410395
4126,8458341.339612136
4162,14199365.105798256
4210,0.0
4236,0.0
4348,0.0
4473,0.0
2,2, 1, 2, 0, 2, 0.00,60.00,Friday
11,67146165.2711075
47,24156278.99999996
71,4835078.999999999
346,19321199.999999968
993,18722069.99999997
1017,18722069.99999997
1497,1605244.4318521103
1533,0.0
1557,0.0
2228,1584873.342597655
2366,1034716.3914832159
4114,22682942.928509896
4126,8458341.339612136
4162,14199365.105798256
4210,0.0
4236,570528.0403688944
4348,0.0
4473,0.0
2,2, 1, 2, 0, 3, 0.00,60.00,Friday
11,66541281.569064948
47,24156278.99999996
71,4835078.999999999
346,19321199.999999968
993,18722069.99999997
1017,18722069.99999997
1497,5845684.999362897
1533,0.0
1557,0.0
2228,792426.7288460608
2366,1034873.8409695391
4114,22870505.840218944
4126,8458341.339612136
4162,14199365.105798256
4210,0.0
4236,4810811.158393359
4348,0.0
4473,0.0
2,2, 1, 2, 0, 4, 0.00,60.00,Friday
11,67286495.05579199
47,24156278.99999996
71,4835078.999999999
346,19321199.999999968
993,18722069.99999997
1017,18722069.99999997
1497,22834546.255552614
1533,0.0
1557,0.0
2228,785941.1079289827
2366,1029891.9898350189
4114,23622204.947863059
4126,8458341.339612136
4162,14199365.105798256
4210,0.0
4236,21804654.265717593
4348,0.0
4473,0.0
2,2, 1, 2, 0, 5, 0.00,60.00,Friday
11,70002150.58763069
47,24156278.99999996
71,4835078.999999999
346,19321199.999999968
993,18722069.99999997
1017,18722069.99999997
1497,40676814.40135351
1533,0.0
1557,0.0
2228,785990.6224031655
2366,1029912.6098181449
4114,26287989.701937815
4126,10346232.370760255
4162,14199365.105798256
4210,45.87162822884547
4236,39646901.79153536
4348,0.0
4473,49775.391661550755
2,2, 1, 2, 0, 6, 0.00,60.00,Friday
11,153787955.22177825
47,53890838.99999992
71,5971238.999999999
346,47919599.99999992
993,47871269.999999929
1017,47871269.999999929
1497,32413922.304861513
1533,0.0
1557,0.0
2228,786095.756446804
2366,1295226.7277728935
4114,28899909.62668464
4126,13338230.186486358
4162,14199365.105798256
4210,22265174.842425869
4236,31118695.577088618
4348,0.0
4473,74665.99622098364
2,2, 1, 2, 0, 7, 0.00,60.00,Friday
11,236957035.1739258
47,80361638.99999988
71,5971238.999999999
346,74390399.99999988
993,69320069.9999999
1017,69320069.9999999
1497,1001726579.7717252
1533,28597212.921243654
1557,28597212.921243654
2228,786127.6382727594
2366,1034059.3416852794
4114,63032219.86323055
4126,24460502.635641144
4162,14199365.105798256
4210,22350890.721185868
4236,972095307.5087962
4348,0.0
4473,1106087.9512368197
2,2, 1, 2, 0, 8, 0.00,60.00,Friday
11,249274065.53183297
47,95991532.16376847
71,21601132.163768598
346,74390399.99999988
993,83139479.99999988
1017,83139479.99999988
1497,662395076.1311574
1533,28882321.086319496
1557,28882321.086319496
2228,3453079.8024746177
2366,1686203.884395327
4114,44665310.23748729
4126,16559657.643241212
4162,14199365.105798256
4210,21696846.23909898
4236,631826551.1604425
4348,0.0
4473,327817.08900370696
2,2, 1, 2, 0, 9, 0.00,60.00,Friday
11,301129857.52484539
47,125950306.21617292
71,51559906.216173049
346,74390399.99999988
993,112981499.99999987
1017,112981499.99999987
1497,476187985.7852491
1533,285108.16507584266
1557,285108.16507584266
2228,4650331.862173782
2366,2444635.5615087936
4114,41494844.2613419
4126,16519577.605455207
4162,14199365.105798256
4210,15820977.365358994
4236,473458242.05866459
4348,0.0
4473,231897.81979778518
2,2, 1, 2, 0,10, 0.00,60.00,Friday
11,353531842.5457376
47,151016199.23281855
71,76625799.23281859
346,74390399.99999988
993,143958059.99999995
1017,143958059.99999995
1497,359730494.49727919
1533,285108.16507584266
1557,285108.16507584266
2228,6109395.6406115679
2366,2890625.717823082
4114,39895851.16096723
4126,16563733.034830206
4162,14199365.105798256
4210,12344070.583840533
4236,356554760.61438027
4348,0.0
4473,208265.9274998789
2,2, 1, 2, 0,11, 0.00,60.00,Friday
11,312844690.8325786
47,128511487.69860499
71,75569887.69860502
346,52941599.9999999
993,122509259.99999996
1017,122509259.99999996
1497,368541240.42700168
1533,513194.69713651677
1557,513194.69713651677
2228,8707954.521818793
2366,3146620.142962059
4114,40569551.22677034
4126,16597791.69983079
4162,14199365.105798256
4210,12339327.572194346
4236,364881425.58690306
4348,0.0
4473,207109.8131902215
2,2, 1, 2, 0,12, 0.00,60.00,Friday
11,314496179.0021728
47,128753614.52573964
71,75812014.52573966
346,52941599.9999999
993,122509259.99999996
1017,122509259.99999996
1497,343870179.9886242
1533,11952079.865633984
1557,11952079.865633984
2228,11415735.179579966
2366,3963330.6151012328
4114,39828755.98608865
4126,16810688.70919692
4162,14199365.105798256
4210,11784593.663677222
4236,327954769.507889
4348,0.0
4473,204219.6470874214
2,2, 1, 2, 0,13, 0.00,60.00,Friday
11,309830698.98628899
47,126635535.36213184
71,73693935.36213187
346,52941599.9999999
993,122509259.99999996
1017,122509259.99999996
1497,264227696.1378812
1533,11952079.865633984
1557,11952079.865633984
2228,12177999.47710989
2366,4628033.671608806
4114,37313021.40302576
4126,16879778.567366139
4162,14199365.105798256
4210,10993769.189866469
4236,247647582.60063843
4348,0.0
4473,201113.55415507343
2,2, 1, 2, 0,14, 0.00,60.00,Friday
11,309133121.7452752
47,127085063.96226895
71,74143463.96226897
346,52941599.9999999
993,122509259.99999996
1017,122509259.99999996
1497,205281179.31132723
1533,513194.69713651677
1557,513194.69713651677
2228,12937227.247997579
2366,4250755.45529003
4114,35829621.23944312
4126,16914942.096869127
4162,14199365.105798256
4210,10572140.701074254
4236,200517229.1589007
4348,0.0
4473,199808.5944914273
2,2, 1, 2, 0,15, 0.00,60.00,Friday
11,306113777.5143894
47,127508596.39647734
71,74566996.39647736
346,52941599.9999999
993,122509259.99999996
1017,122509259.99999996
1497,190947411.50437547
1533,427662.2476137639
1557,427662.2476137639
2228,10051866.19856379
2366,3616813.620395238
4114,35222395.34864582
4126,16955856.006792483
4162,14199365.105798256
4210,10621836.657130983
4236,186902935.63636647
4348,0.0
4473,199822.91357162869
2,2, 1, 2, 0,16, 0.00,60.00,Friday
11,299878061.83302208
47,125070133.52972892
71,72128533.52972894
346,52941599.9999999
993,122509259.99999996
1017,122509259.99999996
1497,147589392.53191764
1533,427662.2476137639
1557,427662.2476137639
2228,8601654.621321008
2366,3136961.9394556304
4114,33740680.42670481
4126,17223559.35935808
4162,14199365.105798256
4210,9756706.700447865
4236,144024768.34484823
4348,0.0
4473,199626.55481964819
2,2, 1, 2, 0,17, 0.00,60.00,Friday
11,303925723.3596276
47,129184810.27662225
71,76243210.2766223
346,52941599.9999999
993,122509259.99999996
1017,122509259.99999996
1497,174917596.9907457
1533,29024875.168857416
1557,29024875.168857416
2228,9206500.614405029
2366,3625695.161888901
4114,33517784.77371651
4126,17178540.555799389
4162,14199365.105798256
4210,9307619.854049102
4236,142267026.65999938
4348,0.0
4473,199747.84083487004
2,2, 1, 2, 0,18, 0.00,60.00,Friday
11,297546671.2975074
47,123776342.99999996
71,70834742.99999997
346,52941599.9999999
993,118102859.99999997
1017,118102859.99999997
1497,215105663.2509566
1533,29024875.168857416
1557,29024875.168857416
2228,9670526.126381703
2366,3157320.5947451696
4114,34689388.13838056
4126,16897732.98652946
4162,14199365.105798256
4210,11107139.654318244
4236,182923467.48735399
4348,0.0
4473,200414.37842710864
2,2, 1, 2, 0,19, 0.00,60.00,Friday
11,331180827.5591876
47,143344268.99999986
71,47505068.99999999
346,95839199.99999984
993,135564839.99999989
1017,135564839.99999989
1497,176159184.61308075
1533,28597212.921243654
1557,28597212.921243654
2228,8574540.55921965
2366,2933832.7669292727
4114,32084911.802747717
4126,16662533.155470547
4162,14199365.105798256
4210,11410166.255151503
4236,144628138.9249078
4348,0.0
4473,202099.94206894935
2,2, 1, 2, 0,20, 0.00,60.00,Friday
11,385703855.9394664
47,171942668.99999974
71,47505068.99999999
346,124437599.9999998
993,164163239.99999974
1017,164163239.99999974
1497,129501294.95209834
1533,0.0
1557,0.0
2228,6712937.4612594
2366,2478399.8671955924
4114,31095892.843496004
4126,16539463.88858639
4162,14199365.105798256
4210,11586632.510420926
4236,127022895.08490277
4348,0.0
4473,202484.12429044405
2,2, 1, 2, 0,21, 0.00,60.00,Friday
11,400335300.10357037
47,180270629.9999997
71,41533829.999999988
346,138736799.9999998
993,169616699.99999974
1017,169616699.99999974
1497,146613213.14180488
1533,0.0
1557,0.0
2228,7124979.268756375
2366,2491859.797406764
4114,31033306.33982535
4126,16519577.605455207
4162,14199365.105798256
4210,12084586.543957904
4236,144121353.3443981
4348,0.0
4473,205097.9510311132
2,2, 1, 2, 0,22, 0.00,60.00,Friday
11,318534471.7388923
47,143777915.9999998
71,19340315.999999998
346,124437599.9999998
993,132085079.9999998
1017,132085079.9999998
1497,14716575.07707199
1533,0.0
1557,0.0
2228,4714223.162609927
2366,1987676.3028034257
4114,25252912.35291015
4126,10490501.918585619
4162,14199365.105798256
4210,12704340.22337261
4236,12728898.774268564
4348,0.0
4473,0.0
2,2, 1, 2, 0,23, 0.00,60.00,Friday
11,230156328.05746246
47,96788438.99999984
71,5971238.999999999
346,90817199.99999984
993,90768869.99999985
1017,90768869.99999985
1497,1346732.769326155
1533,0.0
1557,0.0
2228,2543780.7860760635
2366,1346732.769326155
4114,24689867.024383874
4126,10490501.918585619
4162,14199365.105798256
4210,15365371.247002786
4236,0.0
4348,0.0
4473,0.0
2,2, 1, 2, 0,24, 0.00,60.00,Friday
11,140767852.701085
47,52754678.99999992
71,4835078.999999999
346,47919599.99999992
993,47320469.999999929
1017,47320469.999999929
1497,1312701.633264389
1533,0.0
1557,0.0
2228,1624765.8245996806
2366,1312701.633264389
4114,24689867.024383874
4126,10490501.918585619
4162,14199365.105798256
4210,14378070.852101468
4236,0.0
4348,0.0
4473,0.0
2,3, 1, 3, 0, 1, 0.00,60.00,Saturday
11,67202927.73598531
47,24156278.99999996
71,4835078.999999999
346,19321199.999999968
993,18722069.99999997
1017,18722069.99999997
1497,1332808.4286234258
1533,0.0
1557,0.0
2228,1666872.2905749647
2366,1332808.4286234258
4114,22657706.445410395
4126,8458341.339612136
4162,14199365.105798256
4210,0.0
4236,0.0
4348,0.0
4473,0.0
2,3, 1, 3, 0, 2, 0.00,60.00,Saturday
11,68112310.67568974
47,24156278.99999996
71,4835078.999999999
346,19321199.999999968
993,18722069.99999997
1017,18722069.99999997
1497,3533238.0743304148
1533,0.0
1557,0.0
2228,2478625.4444186177
2366,1326095.7418855758
4114,22755336.231271186
4126,8458341.339612136
4162,14199365.105798256
4210,0.0
4236,2207142.332444839
4348,0.0
4473,0.0
2,3, 1, 3, 0, 3, 0.00,60.00,Saturday
11,67813569.82618773
47,24156278.99999996
71,4835078.999999999
346,19321199.999999968
993,18722069.99999997
1017,18722069.99999997
1497,15804125.488479069
1533,0.0
1557,0.0
2228,1624893.8187234773
2366,1050173.2032325036
4114,23310327.0074643
4126,8458341.339612136
4162,14199365.105798256
4210,0.0
4236,14753952.285246566
4348,0.0
4473,0.0
2,3, 1, 3, 0, 4, 0.00,60.00,Saturday
11,68017959.1774294
47,24156278.99999996
71,4835078.999999999
346,19321199.999999968
993,18722069.99999997
1017,18722069.99999997
1497,39346541.20714315
1533,0.0
1557,0.0
2228,798959.6104236688
2366,1299810.430784168
4114,24340650.567005774
4126,8458341.339612136
4162,14199365.105798256
4210,0.0
4236,38046730.776358988
4348,0.0
4473,0.0
2,3, 1, 3, 0, 5, 0.00,60.00,Saturday
11,70712902.59536998
47,24156278.99999996
71,4835078.999999999
346,19321199.999999968
993,18722069.99999997
1017,18722069.99999997
1497,81944847.44801107
1533,0.0
1557,0.0
2228,1598131.1674419642
2366,1039929.423836794
4114,26236422.427928077
4126,8458341.339612136
4162,14199365.105798256
4210,0.0
4236,80904918.02417428
4348,0.0
4473,0.0
2,3, 1, 3, 0, 6, 0.00,60.00,Saturday
11,179712709.073717
47,52754678.99999992
71,4835078.999999999
346,47919599.99999992
993,47320469.999999929
1017,47320469.999999929
1497,89554370.39171036
1533,0.0
1557,0.0
2228,1598049.3864098762
2366,1128999.495135162
4114,28601239.789026966
4126,10490501.918585619
4162,14199365.105798256
4210,49438270.89828022
4236,88425370.8965752
4348,0.0
4473,0.0
2,3, 1, 3, 0, 7, 0.00,60.00,Saturday
11,271468768.1740566
47,80361638.99999988
71,5971238.999999999
346,74390399.99999988
993,69320069.9999999
1017,69320069.9999999
1497,1232184950.5902296
1533,28597212.921243654
1557,28597212.921243654
2228,805589.9149867479
2366,1229682.0376713803
4114,70380828.51271153
4126,23750892.347627734
4162,14199365.105798256
4210,49473259.057085219
4236,1202358055.6313146
4348,0.0
4473,1127381.6892732995
2,3, 1, 3, 0, 8, 0.00,60.00,Saturday
11,262499990.75564567
47,83860253.48264241
71,9469853.482642539
346,74390399.99999988
993,73192139.99999988
1017,73192139.99999988
1497,881275713.8367426
1533,28597212.921243654
1557,28597212.921243654
2228,4516601.346910119
2366,1822842.5744058227
4114,50976346.28258915
4126,16539537.672186325
4162,14199365.105798256
4210,49422455.259842339
4236,850855658.3410933
4348,0.0
4473,532194.3836617648
2,3, 1, 3, 0, 9, 0.00,60.00,Saturday
11,291448365.8748571
47,100642018.34133214
71,26251618.341332277
346,74390399.99999988
993,90883619.99999987
1017,90883619.99999987
1497,682415185.0048602
1533,285108.16507584266
1557,285108.16507584266
2228,4692587.516292212
2366,2146681.7423621967
4114,45345223.21732172
4126,16519577.605455207
4162,14199365.105798256
4210,49467483.41938896
4236,679983395.0974221
4348,0.0
4473,417433.3805222437
2,3, 1, 3, 0,10, 0.00,60.00,Saturday
11,325806427.46782758
47,117949742.33877564
71,43559342.33877577
346,74390399.99999988
993,114116039.99999988
1017,114116039.99999988
1497,464674496.77517846
1533,285108.16507584266
1557,285108.16507584266
2228,5801094.066301115
2366,2181409.506869861
4114,39873707.59562847
4126,16563812.60386786
4162,14199365.105798256
4210,47783919.72712883
4236,462207979.1032328
4348,0.0
4473,281923.7399935872
2,3, 1, 3, 0,11, 0.00,60.00,Saturday
11,299207268.8651162
47,116599545.1543282
71,63657945.15432821
346,52941599.9999999
993,115899659.99999997
1017,115899659.99999997
1497,317741510.0681371
1533,513194.69713651677
1557,513194.69713651677
2228,7962219.212081078
2366,2957549.9508728396
4114,36828476.7663748
4126,16651901.31683958
4162,14199365.105798256
4210,21696920.216461537
4236,314270765.42012777
4348,0.0
4473,220447.515870676
2,3, 1, 3, 0,12, 0.00,60.00,Saturday
11,292486638.65168157
47,116592428.91550747
71,63650828.91550749
346,52941599.9999999
993,115899659.99999997
1017,115899659.99999997
1497,251082581.3759601
1533,11952079.865633984
1557,11952079.865633984
2228,10913611.253624499
2366,3596954.464441618
4114,35033652.639993499
4126,16885179.64733999
4162,14199365.105798256
4210,13839118.428068292
4236,235533547.0458845
4348,0.0
4473,208167.414487839
2,3, 1, 3, 0,13, 0.00,60.00,Saturday
11,285670890.824516
47,113148184.77195104
71,60206584.77195105
346,52941599.9999999
993,114247259.99999997
1017,114247259.99999997
1497,200182391.4646821
1533,11952079.865633984
1557,11952079.865633984
2228,12454553.394895422
2366,3609002.21810065
4114,33821859.68842152
4126,16963359.046313988
4162,14199365.105798256
4210,11795335.969229414
4236,184621309.38094748
4348,0.0
4473,203697.00001872454
2,3, 1, 3, 0,14, 0.00,60.00,Saturday
11,283678176.70713856
47,113130024.12172708
71,60188424.12172711
346,52941599.9999999
993,114247259.99999997
1017,114247259.99999997
1497,162621490.53060819
1533,513194.69713651677
1557,513194.69713651677
2228,11539955.194945595
2366,3608118.233413114
4114,33045541.171843817
4126,17008411.8341887
4162,14199365.105798256
4210,11509069.806047483
4236,158500177.60005857
4348,3981.3399157897526
4473,202345.0726589319
2,3, 1, 3, 0,15, 0.00,60.00,Saturday
11,281893373.9775812
47,113119986.36583549
71,60178386.3658355
346,52941599.9999999
993,114247259.99999997
1017,114247259.99999997
1497,145473060.52060733
1533,427662.2476137639
1557,427662.2476137639
2228,9914397.504275294
2366,3222351.7946944299
4114,32733116.980379143
4126,17145809.412145944
4162,14199365.105798256
4210,11454943.02892696
4236,141823046.47829915
4348,222007.99259441094
4473,201662.10556998105
2,3, 1, 3, 0,16, 0.00,60.00,Saturday
11,281718206.5854075
47,113442830.99238713
71,60501230.992387149
346,52941599.9999999
993,114247259.99999997
1017,114247259.99999997
1497,120774880.91003357
1533,427662.2476137639
1557,427662.2476137639
2228,9787355.262768165
2366,3013467.0804347235
4114,32757072.26208449
4126,17431663.254809236
4162,14199365.105798256
4210,11000456.970367322
4236,117333751.58198507
4348,283280.6169642289
4473,199950.48083634157
2,3, 1, 3, 0,17, 0.00,60.00,Saturday
11,286808092.33901026
47,118470868.19375496
71,65529268.19375498
346,52941599.9999999
993,114247259.99999997
1017,114247259.99999997
1497,158371298.38277848
1533,29024875.168857416
1557,29024875.168857416
2228,9664459.199261129
2366,3011019.076384466
4114,33104349.875562774
4126,17513087.361929779
4162,14199365.105798256
4210,11114466.124435649
4236,126335404.1375366
4348,6773.447201798588
4473,199915.4987940251
2,3, 1, 3, 0,18, 0.00,60.00,Saturday
11,280226770.71827676
47,111937382.99999996
71,64017782.99999998
346,47919599.99999992
993,113145659.99999997
1017,113145659.99999997
1497,201732031.95356626
1533,28597212.921243654
1557,28597212.921243654
2228,9490838.322680755
2366,2813789.4413623188
4114,33692009.688928399
4126,17036932.654681706
4162,14199365.105798256
4210,11758972.80044377
4236,170321029.59096033
4348,0.0
4473,201906.90622396928
2,3, 1, 3, 0,19, 0.00,60.00,Saturday
11,306576133.39592626
47,128942549.99999987
71,38125349.999999988
346,90817199.99999984
993,125066699.99999988
1017,125066699.99999988
1497,190732765.34837569
1533,28597212.921243654
1557,28597212.921243654
2228,8199206.457526835
2366,2696842.2368766267
4114,31761864.619310313
4126,16519577.605455207
4162,14199365.105798256
4210,12400574.64882981
4236,159438710.1902554
4348,0.0
4473,205237.67025950954
2,3, 1, 3, 0,20, 0.00,60.00,Saturday
11,317686647.8189529
47,142745273.9999998
71,23329673.999999994
346,119415599.9999998
993,138176819.9999998
1017,138176819.9999998
1497,192650576.8580658
1533,0.0
1557,0.0
2228,7433598.557375194
2366,2456176.886204884
4114,29084092.09333366
4126,14487417.026481722
4162,14199365.105798256
4210,32453.83062257467
4236,190194399.97186098
4348,0.0
4473,214409.3376218349
2,3, 1, 3, 0,21, 0.00,60.00,Saturday
11,345097942.6921564
47,157044473.99999977
71,23329673.999999994
346,133714799.99999979
993,152476019.99999977
1017,152476019.99999977
1497,254638908.53019
1533,0.0
1557,0.0
2228,5917655.0545953
2366,2064128.4814884952
4114,29375596.418640898
4126,14487417.026481722
4162,14199365.105798256
4210,43813.51236220806
4236,252574780.04870153
4348,0.0
4473,240383.70655832007
2,3, 1, 3, 0,22, 0.00,60.00,Saturday
11,286207152.025966
47,127949597.9999998
71,8533997.999999999
346,119415599.9999998
993,122688539.9999998
1017,122688539.9999998
1497,336028528.9727303