Program Version,EnergyPlus, Version 9.0.1-bb7ca4f0da, YMD=2019.12.13 16:24
1,5,Environment Title[],Latitude[deg],Longitude[deg],Time Zone[],Elevation[m]
2,8,Day of Simulation[],Month[],Day of Month[],DST Indicator[1=yes 0=no],Hour[],StartMinute[],EndMinute[],DayType
3,5,Cumulative Day of Simulation[],Month[],Day of Month[],DST Indicator[1=yes 0=no],DayType  ! When Daily Meters Requested
4,2,Cumulative Days of Simulation[],Month[]  ! When Monthly Meters Requested
5,1,Cumulative Days of Simulation[] ! When Run Period Meters Requested
6,1,Calendar Year of Simulation[] ! When Annual Meters Requested
4280,1,Heating:Electricity [J] !Hourly
71,1,ComplianceLtg:InteriorLights:Electricity [J] !Hourly
11,1,Electricity:Facility [J] !Hourly
1533,1,InteriorEquipment:Gas [J] !Hourly
47,1,InteriorLights:Electricity [J] !Hourly
993,1,InteriorEquipment:Electricity [J] !Hourly
4114,1,Fans:Electricity [J] !Hourly
4483,1,Pumps:Electricity [J] !Hourly
4222,1,Cooling:Electricity [J] !Hourly
346,1,NonComplianceLtg:InteriorLights:Electricity [J] !Hourly
2228,1,WaterSystems:Electricity [J] !Hourly
1497,1,Gas:Facility [J] !Hourly
4445,1,Heating:Gas [J] !Hourly
1557,1,Receptacle:InteriorEquipment:Gas [J] !Hourly
2366,1,WaterSystems:Gas [J] !Hourly
1017,1,Receptacle:InteriorEquipment:Electricity [J] !Hourly
4126,1,General:Fans:Electricity [J] !Hourly
4162,1,ProcessMotors:Fans:Electricity [J] !Hourly
End of Data Dictionary
1,OAKLAND_724930_CZ2010,  37.72,-122.22,  -8.00,   2.00
2,1, 1, 1, 0, 1, 0.00,60.00,Holiday
11,66341734.31127437
47,24156278.99999996
71,4835078.999999999
346,19321199.999999968
993,18722069.99999997
1017,18722069.99999997
1497,1042651.786822372
1533,0.0
1557,0.0
2228,805678.8658640316
2366,1042651.786822372
4114,22657706.445410395
4126,8458341.339612136
4162,14199365.105798256
4222,0.0
4280,0.0
4445,0.0
4483,0.0
2,1, 1, 1, 0, 2, 0.00,60.00,Holiday
11,67147204.46701041
47,24156278.99999996
71,4835078.999999999
346,19321199.999999968
993,18722069.99999997
1017,18722069.99999997
1497,1042773.3556239077
1533,0.0
1557,0.0
2228,1611149.0216000765
2366,1042773.3556239077
4114,22657706.445410395
4126,8458341.339612136
4162,14199365.105798256
4222,0.0
4280,0.0
4445,0.0
4483,0.0
2,1, 1, 1, 0, 3, 0.00,60.00,Holiday
11,67147231.95592967
47,24156278.99999996
71,4835078.999999999
346,19321199.999999968
993,18722069.99999997
1017,18722069.99999997
1497,1303444.7020435145
1533,0.0
1557,0.0
2228,1611176.510519326
2366,1303444.7020435145
4114,22657706.445410395
4126,8458341.339612136
4162,14199365.105798256
4222,0.0
4280,0.0
4445,0.0
4483,0.0
2,1, 1, 1, 0, 4, 0.00,60.00,Holiday
11,66338538.31884295
47,24156278.99999996
71,4835078.999999999
346,19321199.999999968
993,18722069.99999997
1017,18722069.99999997
1497,1037338.0887808107
1533,0.0
1557,0.0
2228,802482.8734326053
2366,1037338.0887808107
4114,22657706.445410395
4126,8458341.339612136
4162,14199365.105798256
4222,0.0
4280,0.0
4445,0.0
4483,0.0
2,1, 1, 1, 0, 5, 0.00,60.00,Holiday
11,67130476.9085209
47,24156278.99999996
71,4835078.999999999
346,19321199.999999968
993,18722069.99999997
1017,18722069.99999997
1497,1037576.7929839178
1533,0.0
1557,0.0
2228,1594421.463110576
2366,1037576.7929839178
4114,22657706.445410395
4126,8458341.339612136
4162,14199365.105798256
4222,0.0
4280,0.0
4445,0.0
4483,0.0
2,1, 1, 1, 0, 6, 0.00,60.00,Holiday
11,136595526.88432095
47,52754678.99999992
71,4835078.999999999
346,47919599.99999992
993,47320469.999999929
1017,47320469.999999929
1497,1305585.483511119
1533,0.0
1557,0.0
2228,1598013.9115499203
2366,1305585.483511119
4114,24689867.024383874
4126,10490501.918585619
4162,14199365.105798256
4222,0.0
4280,10232496.948387199
4445,0.0
4483,0.0
2,1, 1, 1, 0, 7, 0.00,60.00,Holiday
11,228892116.44762139
47,74203478.99999988
71,4835078.999999999
346,69368399.9999999
993,68769269.9999999
1017,68769269.9999999
1497,29639978.4772994
1533,28597212.921243654
1557,28597212.921243654
2228,805482.688303605
2366,1042765.5560557449
4114,31497453.347764106
4126,10490501.91858562
4162,14199365.105798256
4222,0.0
4280,53616431.41155384
4445,0.0
4483,0.0
2,1, 1, 1, 0, 8, 0.00,60.00,Holiday
11,205725021.54075126
47,74200681.65655187
71,4832281.656551992
346,69368399.9999999
993,68769269.9999999
1017,68769269.9999999
1497,29920464.70125115
1533,28597212.921243654
1557,28597212.921243654
2228,2478520.2083456527
2366,1323251.780007496
4114,28096826.772964207
4126,10490501.918585619
4162,14199365.105798256
4222,0.0
4280,32179722.902889637
4445,0.0
4483,0.0
2,1, 1, 1, 0, 9, 0.00,60.00,Holiday
11,220221418.7624051
47,77866802.85820617
71,8498402.85820629
346,69368399.9999999
993,72641339.99999988
1017,72641339.99999988
1497,337434130.39573666
1533,0.0
1557,0.0
2228,2521552.488768691
2366,1336869.877494484
4114,40058074.80117643
4126,23322991.045327136
4162,14199365.105798256
4222,0.0
4280,26436714.160743275
4445,336097260.5182421
4483,696934.4535105928
2,1, 1, 1, 0,10, 0.00,60.00,Holiday
11,211562180.09679459
47,77828289.19392273
71,8459889.19392286
346,69368399.9999999
993,72641339.99999988
1017,72641339.99999988
1497,253779329.48903514
1533,0.0
1557,0.0
2228,2565979.613975335
2366,1350392.0201580509
4114,33143605.727303585
4126,16547261.232663252
4162,14199365.105798256
4222,0.0
4280,25118196.29615102
4445,252428937.46887706
4483,264769.26544206516
2,1, 1, 1, 0,11, 0.00,60.00,Holiday
11,221861371.36076937
47,78190936.07751526
71,30271336.077515309
346,47919599.99999992
993,74424959.99999996
1017,74424959.99999996
1497,162655420.82559965
1533,0.0
1557,0.0
2228,5915849.5139180659
2366,2049062.746054082
4114,33882017.74943431
4126,16519577.605455207
4162,14199365.105798256
4222,0.0
4280,29239025.227618018
4445,160606358.07954554
4483,208582.79228383146
2,1, 1, 1, 0,12, 0.00,60.00,Holiday
11,218798036.06948836
47,78111472.16791573
71,30191872.167915778
346,47919599.99999992
993,74424959.99999996
1017,74424959.99999996
1497,156346205.0190236
1533,11438885.168497468
1557,11438885.168497468
2228,6039403.793983126
2366,2380305.4032735314
4114,33470454.66791693
4126,16519577.605455207
4162,14199365.105798256
4222,0.0
4280,26547802.8665605
4445,142527014.44725264
4483,203942.57311209874
2,1, 1, 1, 0,13, 0.00,60.00,Holiday
11,245850832.87609209
47,89028082.04909002
71,41108482.04909003
346,47919599.99999992
993,89913239.99999997
1017,89913239.99999997
1497,115949710.25583652
1533,11438885.168497468
1557,11438885.168497468
2228,7433390.94091222
2366,2423108.3153681347
4114,33316404.0013191
4126,16519577.605455207
4162,14199365.105798256
4222,0.0
4280,25959754.927643919
4445,102087716.77197093
4483,199960.95712697175
2,1, 1, 1, 0,14, 0.00,60.00,Holiday
11,242994359.15216948
47,89125391.78713009
71,41205791.78713012
346,47919599.99999992
993,89913239.99999997
1017,89913239.99999997
1497,87240627.63264939
1533,0.0
1557,0.0
2228,7434080.240224937
2366,2461124.5488799277
4114,32949964.53176394
4126,16519577.605455207
4162,14199365.105798256
4222,0.0
4280,23372650.37074593
4445,84779503.08376947
4483,199032.22230470298
2,1, 1, 1, 0,15, 0.00,60.00,Holiday
11,240584244.71548087
47,89177241.58200275
71,41257641.58200276
346,47919599.99999992
993,89913239.99999997
1017,89913239.99999997
1497,74990740.86579933
1533,0.0
1557,0.0
2228,6972302.683074499
2366,2150730.8178377274
4114,32717821.257195087
4126,16519577.605455207
4162,14199365.105798256
4222,0.0
4280,21605115.434038186
4445,72840010.0479616
4483,198523.75917034586
2,1, 1, 1, 0,16, 0.00,60.00,Holiday
11,236361894.358592
47,89077981.23767859
71,41158381.23767861
346,47919599.99999992
993,89913239.99999997
1017,89913239.99999997
1497,72714534.73800947
1533,0.0
1557,0.0
2228,6605680.23492899
2366,2423529.67531865
4114,32188884.413637658
4126,16519577.605455207
4162,14199365.105798256
4222,0.0
4280,18377645.598100924
4445,70291005.06269083
4483,198462.87424592308
2,1, 1, 1, 0,17, 0.00,60.00,Holiday
11,237376366.82964219
47,89630652.08218143
71,41711052.08218143
346,47919599.99999992
993,89913239.99999997
1017,89913239.99999997
1497,108383307.91520693
1533,28597212.921243654
1557,28597212.921243654
2228,7515357.662652361
2366,2451307.880799683
4114,32088432.30160006
4126,16519577.605455207
4162,14199365.105798256
4222,0.0
4280,18029969.71965002
4445,77334787.11316359
4483,198715.0635583385
2,1, 1, 1, 0,18, 0.00,60.00,Holiday
11,213883172.9244392
47,78647111.99999994
71,30727511.99999999
346,47919599.99999992
993,74424959.99999996
1017,74424959.99999996
1497,147563154.23162613
1533,28597212.921243654
1557,28597212.921243654
2228,7273629.116037043
2366,2203951.0037295536
4114,32501249.302534678
4126,16519577.605455207
4162,14199365.105798256
4222,0.0
4280,20835347.700820846
4445,116761990.30665294
4483,200874.80504682713
2,1, 1, 1, 0,19, 0.00,60.00,Holiday
11,243429788.99084268
47,106749035.99999982
71,15931835.999999995
346,90817199.99999984
993,101834279.99999984
1017,101834279.99999984
1497,193371223.05618114
1533,28597212.921243654
1557,28597212.921243654
2228,4737071.68403216
2366,1912519.4884083558
4114,28862911.628528507
4126,14487417.026481722
4162,14199365.105798256
4222,0.0
4280,1040079.4043337058
4445,162861490.64652915
4483,206410.27394857515
2,1, 1, 1, 0,20, 0.00,60.00,Holiday
11,271596799.59899106
47,124250678.9999998
71,4835078.999999999
346,119415599.9999998
993,118816469.99999982
1017,118816469.99999982
1497,2026574.3515462985
1533,0.0
1557,0.0
2228,5798762.4993297909
2366,2026574.3515462985
4114,22667786.933675007
4126,8458341.339612136
4162,14199365.105798256
4222,0.0
4280,63101.165986484244
4445,0.0
4483,0.0
2,1, 1, 1, 0,21, 0.00,60.00,Holiday
11,298330332.87470987
47,138549878.9999998
71,4835078.999999999
346,133714799.99999979
993,133115669.99999979
1017,133115669.99999979
1497,1681066.2219631386
1533,0.0
1557,0.0
2228,3998461.3740103107
2366,1681066.2219631386
4114,22658892.6973396
4126,8458341.339612136
4162,14199365.105798256
4222,0.0
4280,7429.803360211536
4445,0.0
4483,0.0
2,1, 1, 1, 0,22, 0.00,60.00,Holiday
11,269006206.1657361
47,124250678.9999998
71,4835078.999999999
346,119415599.9999998
993,118816469.99999982
1017,118816469.99999982
1497,1648623.0628833664
1533,0.0
1557,0.0
2228,3147744.8638124365
2366,1648623.0628833664
4114,22676096.53948548
4126,8458341.339612136
4162,14199365.105798256
4222,0.0
4280,115215.76243839454
4445,0.0
4483,0.0
2,1, 1, 1, 0,23, 0.00,60.00,Holiday
11,211006509.56926627
47,95652278.99999984
71,4835078.999999999
346,90817199.99999984
993,90218069.99999985
1017,90218069.99999985
1497,1323208.4225938328
1533,0.0
1557,0.0
2228,2478454.123856119
2366,1323208.4225938328
4114,22657706.445410395
4126,8458341.339612136
4162,14199365.105798256
4222,0.0
4280,0.0
4445,0.0
4483,0.0
2,1, 1, 1, 0,24, 0.00,60.00,Holiday
11,123531800.80114615
47,52754678.99999992
71,4835078.999999999
346,47919599.99999992
993,47320469.999999929
1017,47320469.999999929
1497,1037753.0176906058
1533,0.0
1557,0.0
2228,798945.3557358043
2366,1037753.0176906058
4114,22657706.445410395
4126,8458341.339612136
4162,14199365.105798256
4222,0.0
4280,0.0
4445,0.0
4483,0.0
2,2, 1, 2, 0, 1, 0.00,60.00,Friday
11,66322096.52597215
47,24156278.99999996
71,4835078.999999999
346,19321199.999999968
993,18722069.99999997
1017,18722069.99999997
1497,1029513.9691030178
1533,0.0
1557,0.0
2228,786041.0805618052
2366,1029513.9691030178
4114,22657706.445410395
4126,8458341.339612136
4162,14199365.105798256
4222,0.0
4280,0.0
4445,0.0
4483,0.0
2,2, 1, 2, 0, 2, 0.00,60.00,Friday
11,67120928.53663728
47,24156278.99999996
71,4835078.999999999
346,19321199.999999968
993,18722069.99999997
1017,18722069.99999997
1497,1034716.1183581663
1533,0.0
1557,0.0
2228,1584873.0912269457
2366,1034716.1183581663
4114,22657706.445410395
4126,8458341.339612136
4162,14199365.105798256
4222,0.0
4280,0.0
4445,0.0
4483,0.0
2,2, 1, 2, 0, 3, 0.00,60.00,Friday
11,66393871.61821477
47,24156278.99999996
71,4835078.999999999
346,19321199.999999968
993,18722069.99999997
1017,18722069.99999997
1497,1034873.5716344627
1533,0.0
1557,0.0
2228,792426.6032661047
2366,1034873.5716344627
4114,22667052.43340014
4126,8458341.339612136
4162,14199365.105798256
4222,0.0
4280,56043.58154857723
4445,0.0
4483,0.0
2,2, 1, 2, 0, 4, 0.00,60.00,Friday
11,67286155.4764906
47,24156278.99999996
71,4835078.999999999
346,19321199.999999968
993,18722069.99999997
1017,18722069.99999997
1497,1029891.7243422002
1533,0.0
1557,0.0
2228,785940.9828122197
2366,1029891.7243422002
4114,22792952.890204617
4126,8458341.339612136
4162,14199365.105798256
4222,0.0
4280,828912.6034738224
4445,0.0
4483,0.0
2,2, 1, 2, 0, 5, 0.00,60.00,Friday
11,69683511.48782686
47,24156278.99999996
71,4835078.999999999
346,19321199.999999968
993,18722069.99999997
1017,18722069.99999997
1497,1029912.345687262
1533,0.0
1557,0.0
2228,785990.4978700412
2366,1029912.345687262
4114,23115588.094375567
4126,8458341.339612136
4162,14199365.105798256
4222,0.0
4280,2903583.8955812884
4445,0.0
4483,0.0
2,2, 1, 2, 0, 6, 0.00,60.00,Friday
11,152501003.27954699
47,53890838.99999992
71,5971238.999999999
346,47919599.99999992
993,47871269.999999929
1017,47871269.999999929
1497,1295268.3321693994
1533,0.0
1557,0.0
2228,786095.6447905415
2366,1295268.3321693994
4114,25097221.06368833
4126,10490501.918585619
4162,14199365.105798256
4222,0.0
4280,24855577.57106816
4445,0.0
4483,0.0
2,2, 1, 2, 0, 7, 0.00,60.00,Friday
11,348416564.25622889
47,80361638.99999988
71,5971238.999999999
346,74390399.99999988
993,69320069.9999999
1017,69320069.9999999
1497,420615079.2475268
1533,28597212.921243654
1557,28597212.921243654
2228,786127.4482852209
2366,1033918.7775069254
4114,57020576.39206615
4126,23275053.324889449
4162,14199365.105798256
4222,0.0
4280,140159629.96334208
4445,390983947.54877629
4483,768521.4525356083
2,2, 1, 2, 0, 8, 0.00,60.00,Friday
11,308314742.5781917
47,95991824.912717
71,21601424.91271712
346,74390399.99999988
993,83139479.99999988
1017,83139479.99999988
1497,335797590.9611665
1533,28882321.086319496
1557,28882321.086319496
2228,3453079.0058628
2366,1686204.1787166338
4114,41092232.40625665
4126,16530398.624516963
4162,14199365.105798256
4222,0.0
4280,84335674.4534778
4445,305229065.6961304
4483,302451.7998776359
2,2, 1, 2, 0, 9, 0.00,60.00,Friday
11,343924806.6856798
47,125955269.44710467
71,51564869.44710478
346,74390399.99999988
993,112981499.99999987
1017,112981499.99999987
1497,220864320.54393149
1533,285108.16507584266
1557,285108.16507584266
2228,4650332.490669025
2366,2444634.676809768
4114,38244063.74598678
4126,16519577.605455207
4162,14199365.105798256
4222,0.0
4280,61867741.32855638
4445,218134577.70204587
4483,225899.67336301608
2,2, 1, 2, 0,10, 0.00,60.00,Friday
11,389021964.1494466
47,151040062.8963255
71,76649662.89632558
346,74390399.99999988
993,143958059.99999995
1017,143958059.99999995
1497,151348891.1075118
1533,285108.16507584266
1557,285108.16507584266
2228,6109396.50703192
2366,2890263.0985471869
4114,36999076.10702484
4126,16564282.257164859
4162,14199365.105798256
4222,0.0
4280,50707595.52152388
4445,148173519.84388877
4483,207773.1175405738
2,2, 1, 2, 0,11, 0.00,60.00,Friday
11,352199531.95953169
47,128556250.51882948
71,75614650.51882951
346,52941599.9999999
993,122509259.99999996
1017,122509259.99999996
1497,145384821.94823308
1533,513194.69713651677
1557,513194.69713651677
2228,8707276.415984383
2366,3147006.166887349
4114,37682058.20715756
4126,16612179.051998018
4162,14199365.105798256
4222,0.0
4280,54538012.46429452
4445,141724621.0842092
4483,206674.35326579959
2,2, 1, 2, 0,12, 0.00,60.00,Friday
11,348861254.11823269
47,128793233.02041562
71,75851633.02041565
346,52941599.9999999
993,122509259.99999996
1017,122509259.99999996
1497,141995193.30707557
1533,11952079.865633984
1557,11952079.865633984
2228,11416569.856533373
2366,3963330.5491583107
4114,37051179.85771843
4126,16846086.565462509
4162,14199365.105798256
4222,0.0
4280,48887150.343013029
4445,126079782.89228325
4483,203861.04055228149
2,2, 1, 2, 0,13, 0.00,60.00,Friday
11,333459146.4436723
47,126721138.9233633
71,73779538.92336333
346,52941599.9999999
993,122509259.99999996
1017,122509259.99999996
1497,120345739.77574982
1533,11952079.865633984
1557,11952079.865633984
2228,12177237.625104133
2366,4627753.2817777809
4114,35208227.70274616
4126,16911638.488347837
4162,14199365.105798256
4222,0.0
4280,36642439.48760978
4445,103765906.62833804
4483,200842.70484899754
2,2, 1, 2, 0,14, 0.00,60.00,Friday
11,325220812.9239996
47,127162152.55126374
71,74220552.55126377
346,52941599.9999999
993,122509259.99999996
1017,122509259.99999996
1497,96102493.03786078
1533,513194.69713651677
1557,513194.69713651677
2228,12937220.694165253
2366,4251029.798985092
4114,34130489.39768946
4126,16983885.280249068
4162,14199365.105798256
4222,0.0
4280,28282054.295222857
4445,91338268.54173918
4483,199635.9856583813
2,2, 1, 2, 0,15, 0.00,60.00,Friday
11,318162942.2756244
47,127579514.69963417
71,74637914.69963418
346,52941599.9999999
993,122509259.99999996
1017,122509259.99999996
1497,92256492.41417443
1533,427662.2476137639
1557,427662.2476137639
2228,10052509.662846892
2366,3616814.34687123
4114,33750686.47570874
4126,17147461.395029196
4162,14199365.105798256
4222,0.0
4280,24071593.552335364
4445,88212015.81968943
4483,199377.8850994838
2,2, 1, 2, 0,16, 0.00,60.00,Friday
11,304465023.5463079
47,125096130.37723989
71,72154530.3772399
346,52941599.9999999
993,122509259.99999996
1017,122509259.99999996
1497,85685118.8043685
1533,427662.2476137639
1557,427662.2476137639
2228,8600935.924632576
2366,3136961.575552273
4114,32851761.104074576
4126,17617306.38455927
4162,14199365.105798256
4222,0.0
4280,15207871.84376552
4445,82120494.98120246
4483,199064.29659547183
2,2, 1, 2, 0,17, 0.00,60.00,Friday
11,308285903.99254766
47,129242778.988833
71,76301178.98883303
346,52941599.9999999
993,122509259.99999996
1017,122509259.99999996
1497,115286603.6513451
1533,29024875.168857416
1557,29024875.168857416
2228,9207231.752128318
2366,3625695.142873918
4114,32736552.64183849
4126,17585900.42440854
4162,14199365.105798256
4222,0.0
4280,14390947.597956453
4445,82636033.33961377
4483,199133.01179146523
2,2, 1, 2, 0,18, 0.00,60.00,Friday
11,306420336.92297199
47,123776342.99999996
71,70834742.99999997
346,52941599.9999999
993,118102859.99999997
1017,118102859.99999997
1497,125811272.64865887
1533,29024875.168857416
1557,29024875.168857416
2228,9670523.746648586
2366,3156950.6551466698
4114,32949706.992230029
4126,17076773.602488389
4162,14199365.105798256
4222,0.0
4280,21721121.24869795
4445,93629446.82465479
4483,199781.9353956121
2,2, 1, 2, 0,19, 0.00,60.00,Friday
11,332098512.8120732
47,143344268.99999986
71,47505068.99999999
346,95839199.99999984
993,135564839.99999989
1017,135564839.99999989
1497,146479660.62276728
1533,28597212.921243654
1557,28597212.921243654
2228,8573747.124352765
2366,2934186.789947305
4114,31198062.159383168
4126,16695244.888416874
4162,14199365.105798256
4222,0.0
4280,13215756.709538624
4445,114948260.9115763
4483,201837.8187987915
2,2, 1, 2, 0,20, 0.00,60.00,Friday
11,385665402.9161271
47,171942668.99999974
71,47505068.99999999
346,124437599.9999998
993,164163239.99999974
1017,164163239.99999974
1497,119201581.2637718
1533,0.0
1557,0.0
2228,6713663.012534271
2366,2478398.9835434427
4114,30803255.533664265
4126,16560723.322338883
4162,14199365.105798256
4222,0.0
4280,11840348.849326218
4445,116723182.28022838
4483,202226.52060276594
2,2, 1, 2, 0,21, 0.00,60.00,Friday
11,400280370.4624584
47,180270629.9999997
71,41533829.999999988
346,138736799.9999998
993,169616699.99999974
1017,169616699.99999974
1497,134145749.07164791
1533,0.0
1557,0.0
2228,7124232.577339606
2366,2491444.0886551786
4114,30756169.211582439
4126,16519577.605455207
4162,14199365.105798256
4222,0.0
4280,12308175.599710346
4445,131654304.98299274
4483,204463.07382636437
2,2, 1, 2, 0,22, 0.00,60.00,Friday
11,318788953.7159803
47,143777915.9999998
71,19340315.999999998
346,124437599.9999998
993,132085079.9999998
1017,132085079.9999998
1497,1988063.3639147897
1533,0.0
1557,0.0
2228,4714895.438315425
2366,1988063.3639147897
4114,24812847.767215399
4126,10490501.918585619
4162,14199365.105798256
4222,0.0
4280,13398214.510449769
4445,0.0
4483,0.0
2,2, 1, 2, 0,23, 0.00,60.00,Friday
11,230156035.2710461
47,96788438.99999984
71,5971238.999999999
346,90817199.99999984
993,90768869.99999985
1017,90768869.99999985
1497,1346676.7328241084
1533,0.0
1557,0.0
2228,2543485.7026712105
2366,1346676.7328241084
4114,24689867.024383874
4126,10490501.918585619
4162,14199365.105798256
4222,0.0
4280,15365373.543991276
4445,0.0
4483,0.0
2,2, 1, 2, 0,24, 0.00,60.00,Friday
11,140767774.53771324
47,52754678.99999992
71,4835078.999999999
346,47919599.99999992
993,47320469.999999929
1017,47320469.999999929
1497,1312843.2696082805
1533,0.0
1557,0.0
2228,1624766.1326806662
2366,1312843.2696082805
4114,24689867.024383874
4126,10490501.918585619
4162,14199365.105798256
4222,0.0
4280,14377992.380648723
4445,0.0
4483,0.0
2,3, 1, 3, 0, 1, 0.00,60.00,Saturday
11,67202682.45900357
47,24156278.99999996
71,4835078.999999999
346,19321199.999999968
993,18722069.99999997
1017,18722069.99999997
1497,1332908.0114986939
1533,0.0
1557,0.0
2228,1666627.0135932258
2366,1332908.0114986939
4114,22657706.445410395
4126,8458341.339612136
4162,14199365.105798256
4222,0.0
4280,0.0
4445,0.0
4483,0.0
2,3, 1, 3, 0, 2, 0.00,60.00,Saturday
11,68014681.81520668
47,24156278.99999996
71,4835078.999999999
346,19321199.999999968
993,18722069.99999997
1017,18722069.99999997
1497,1326095.1101867334
1533,0.0
1557,0.0
2228,2478626.369796342
2366,1326095.1101867334
4114,22657706.445410395
4126,8458341.339612136
4162,14199365.105798256
4222,0.0
4280,0.0
4445,0.0
4483,0.0
2,3, 1, 3, 0, 3, 0.00,60.00,Saturday
11,67704378.07370013
47,24156278.99999996
71,4835078.999999999
346,19321199.999999968
993,18722069.99999997
1017,18722069.99999997
1497,1050171.9196180739
1533,0.0
1557,0.0
2228,1624894.4213766594
2366,1050171.9196180739
4114,22734991.101581128
4126,8458341.339612136
4162,14199365.105798256
4222,0.0
4280,466143.5507423899
4445,0.0
4483,0.0
2,3, 1, 3, 0, 4, 0.00,60.00,Saturday
11,69013564.87875155
47,24156278.99999996
71,4835078.999999999
346,19321199.999999968
993,18722069.99999997
1017,18722069.99999997
1497,1299811.0081208782
1533,0.0
1557,0.0
2228,798959.909030877
2366,1299811.0081208782
4114,23028131.630722204
4126,8458341.339612136
4162,14199365.105798256
4222,0.0
4280,2308124.3389985135
4445,0.0
4483,0.0
2,3, 1, 3, 0, 5, 0.00,60.00,Saturday
11,83795451.1186791
47,24156278.99999996
71,4835078.999999999
346,19321199.999999968
993,18722069.99999997
1017,18722069.99999997
1497,1039932.2538566615
1533,0.0
1557,0.0
2228,1598131.7591472977
2366,1039932.2538566615
4114,24850028.444103008
4126,8458341.339612136
4162,14199365.105798256
4222,0.0
4280,14468941.915428879
4445,0.0
4483,0.0
2,3, 1, 3, 0, 6, 0.00,60.00,Saturday
11,198137566.50607846
47,52754678.99999992
71,4835078.999999999
346,47919599.99999992
993,47320469.999999929
1017,47320469.999999929
1497,1126170.353489462
1533,0.0
1557,0.0
2228,1598049.9811383519
2366,1126170.353489462
4114,27640202.971287945
4126,10490501.918585619
4162,14199365.105798256
4222,0.0
4280,68824164.55365218
4445,0.0
4483,0.0
2,3, 1, 3, 0, 7, 0.00,60.00,Saturday
11,599733718.165312
47,80361638.99999988
71,5971238.999999999
346,74390399.99999988
993,69320069.9999999
1017,69320069.9999999
1497,470955386.2612177
1533,28597212.921243654
1557,28597212.921243654
2228,805577.5047500529
2366,1232287.8229072116
4114,69878114.50553122
4126,21140512.4898534
4162,14199365.105798256
4222,0.0
4280,378479197.038579
4445,441125885.5170669
4483,889120.1164520774
2,3, 1, 3, 0, 8, 0.00,60.00,Saturday
11,426314617.90161529
47,83874803.89328814
71,9484403.893288268
346,74390399.99999988
993,73192139.99999988
1017,73192139.99999988
1497,407591772.02066805
1533,28597212.921243654
1557,28597212.921243654
2228,4516600.212062845
2366,1821393.6017130232
4114,56023824.05334872
4126,16519577.605455207
4162,14199365.105798256
4222,0.0
4280,208233050.09723849
4445,377173165.4977113
4483,474199.6456772412
2,3, 1, 3, 0, 9, 0.00,60.00,Saturday
11,406955320.0346836
47,100695645.08422561
71,26305245.084225745
346,74390399.99999988
993,90883619.99999987
1017,90883619.99999987
1497,339206299.9801924
1533,285108.16507584266
1557,285108.16507584266
2228,4692586.0713255149
2366,2146680.101057409
4114,48321627.93359846
4126,16519577.605455207
4162,14199365.105798256
4222,0.0
4280,161967380.82501398
4445,336774511.71405926
4483,394460.12052023826
2,3, 1, 3, 0,10, 0.00,60.00,Saturday
11,389766709.76547989
47,117985595.06236261
71,43595195.06236273
346,74390399.99999988
993,114116039.99999988
1017,114116039.99999988
1497,247821128.3484692
1533,285108.16507584266
1557,285108.16507584266
2228,5801094.209548733
2366,2182959.0344564358
4114,40245325.575693879
4126,16563812.297597196
4162,14199365.105798256
4222,0.0
4280,111343088.30145988
4445,245353061.14893694
4483,275566.61641478209
2,3, 1, 3, 0,11, 0.00,60.00,Saturday
11,326005618.9554628
47,116672127.32430659
71,63730527.32430662
346,52941599.9999999
993,115899659.99999997
1017,115899659.99999997
1497,180204878.5919149
1533,513194.69713651677
1557,513194.69713651677
2228,7962218.085083412
2366,2957549.5656427226
4114,35262176.75993846
4126,16662704.897189923
4162,14199365.105798256
4222,0.0
4280,49989584.681916709
4445,176734134.32913567
4483,219852.1042177243
2,3, 1, 3, 0,12, 0.00,60.00,Saturday
11,308508658.7570416
47,116653672.91456898
71,63712072.91456899
346,52941599.9999999
993,115899659.99999997
1017,115899659.99999997
1497,159561361.8620246
1533,11952079.865633984
1557,11952079.865633984
2228,10914354.840706032
2366,3596954.063297809
4114,33733990.339971419
4126,16921885.592118838
4162,14199365.105798256
4222,0.0
4280,31099197.455103838
4445,144012327.9330928
4483,207783.20669145697
2,3, 1, 3, 0,13, 0.00,60.00,Saturday
11,294751383.6629142
47,113208352.44555205
71,60266752.44555206
346,52941599.9999999
993,114247259.99999997
1017,114247259.99999997
1497,137722123.42958195
1533,11952079.865633984
1557,11952079.865633984
2228,12453752.561307989
2366,3608013.1037615479
4114,32690284.60420681
4126,16994689.25662255
4162,14199365.105798256
4222,0.0
4280,21948331.352443559
4445,122162030.46018639
4483,203402.69940391306
2,3, 1, 3, 0,14, 0.00,60.00,Saturday
11,289791566.1327857
47,113198508.68766111
71,60256908.68766112
346,52941599.9999999
993,114247259.99999997
1017,114247259.99999997
1497,115163418.2201806
1533,513194.69713651677
1557,513194.69713651677
2228,11540045.919552926
2366,3608089.008916701
4114,32356301.589571526
4126,17189186.45361206
4162,14199365.105798256
4222,111649.2097396091
4280,18136137.73092363
4445,111042134.51412738
4483,201662.99533693488
2,3, 1, 3, 0,15, 0.00,60.00,Saturday
11,286451070.8078133
47,113195563.68834442
71,60253963.688344437
346,52941599.9999999
993,114247259.99999997
1017,114247259.99999997
1497,101242079.6496726
1533,427662.2476137639
1557,427662.2476137639
2228,9914390.607484412
2366,3223211.2191597309
4114,32544646.199004044
4126,17660645.03975743
4162,14199365.105798256
4222,600061.0501670302
4280,15748860.193812546
4445,97591206.1828991
4483,200289.0690008402
2,3, 1, 3, 0,16, 0.00,60.00,Saturday
11,285634074.40316596
47,113480200.28159058
71,60538600.281590599
346,52941599.9999999
993,114247259.99999997
1017,114247259.99999997
1497,83771680.89343414
1533,427662.2476137639
1557,427662.2476137639
2228,9787327.318108334
2366,3013564.8382391787
4114,32804819.641370659
4126,18003969.218128578
4162,14199365.105798256
4222,880853.4618047855
4280,14234562.640768564
4445,80330453.80758119
4483,199051.05952313596
2,3, 1, 3, 0,17, 0.00,60.00,Saturday
11,290290422.08441117
47,118508558.7251148
71,65566958.725114818
346,52941599.9999999
993,114247259.99999997
1017,114247259.99999997
1497,113560501.57055398
1533,29024875.168857416
1557,29024875.168857416
2228,9664487.741153727
2366,3010969.7096091585
4114,32823727.781975174
4126,18117394.3984228
4162,14199365.105798256
4222,36936.55711779875
4280,14810423.44496809
4445,81524656.6920874
4483,199027.83408161594
2,3, 1, 3, 0,18, 0.00,60.00,Saturday
11,286067721.62788417
47,111937382.99999996
71,64017782.99999998
346,47919599.99999992
993,113145659.99999997
1017,113145659.99999997
1497,135871550.56465367
1533,28597212.921243654
1557,28597212.921243654
2228,9491550.403851036
2366,2812813.835852739
4114,32705663.37343776
4126,17524502.25568224
4162,14199365.105798256
4222,0.0
4280,18586755.180133754
4445,104461523.80755729
4483,200709.67046178157
2,3, 1, 3, 0,19, 0.00,60.00,Saturday
11,306820876.77289816
47,128942549.99999987
71,38125349.999999988
346,90817199.99999984
993,125066699.99999988
1017,125066699.99999988
1497,165076357.23763675
1533,28597212.921243654
1557,28597212.921243654
2228,8197630.187314486
2366,2697591.0473347858
4114,30901192.62355523
4126,16519817.570134609
4162,14199365.105798256
4222,0.0
4280,13507872.28589369
4445,133781553.26905833
4483,204931.67613494257
2,3, 1, 3, 0,20, 0.00,60.00,Saturday
11,317422502.04324087
47,142745273.9999998
71,23329673.999999994
346,119415599.9999998
993,138176819.9999998
1017,138176819.9999998
1497,167810940.25446726
1533,0.0
1557,0.0
2228,7433596.447337992
2366,2456176.2410074688
4114,28704527.404512586
4126,14487417.026481722
4162,14199365.105798256
4222,0.0
4280,150698.28968869447
4445,165354764.01345978
4483,211585.90170194419
2,3, 1, 3, 0,21, 0.00,60.00,Saturday
11,344784495.01476606
47,157044473.99999977
71,23329673.999999994
346,133714799.99999979
993,152476019.99999977
1017,152476019.99999977
1497,229650934.56072358
1533,0.0
1557,0.0
2228,5917653.8603031509
2366,2064128.501789784
4114,28735238.506411695
4126,14487417.026481722
4162,14199365.105798256
4222,0.0
4280,374482.61998143119
4445,227586806.0589338
4483,236626.02807005513
2,3, 1, 3, 0,22, 0.00,60.00,Saturday
11,287486805.77054789
47,127949597.9999998
71,8533997.999999999
346,119415599.9999998
993,122688539.9999998
1017,122688539.9999998
1497,281503858.3097875
1533,0.0
1557,0.0
2228,4602242.526899006
2366,1995403.310564687
4114,29108771.781489899
4126,14487417.026481722
4162,14199365.105798256
4222,0.0
4280,2864447.664477274
4445,279508454.9992229