Program Version,EnergyPlus, Version 9.0.1-bb7ca4f0da, YMD=2019.12.18 16:12
1,5,Environment Title[],Latitude[deg],Longitude[deg],Time Zone[],Elevation[m]
2,8,Day of Simulation[],Month[],Day of Month[],DST Indicator[1=yes 0=no],Hour[],StartMinute[],EndMinute[],DayType
3,5,Cumulative Day of Simulation[],Month[],Day of Month[],DST Indicator[1=yes 0=no],DayType  ! When Daily Meters Requested
4,2,Cumulative Days of Simulation[],Month[]  ! When Monthly Meters Requested
5,1,Cumulative Days of Simulation[] ! When Run Period Meters Requested
6,1,Calendar Year of Simulation[] ! When Annual Meters Requested
10,1,Electricity:Facility [J] !Hourly
1532,1,InteriorEquipment:Gas [J] !Hourly
46,1,InteriorLights:Electricity [J] !Hourly
992,1,InteriorEquipment:Electricity [J] !Hourly
4121,1,Fans:Electricity [J] !Hourly
4480,1,Pumps:Electricity [J] !Hourly
4243,1,Heating:Electricity [J] !Hourly
4354,1,Cooling:Electricity [J] !Hourly
2227,1,WaterSystems:Electricity [J] !Hourly
1496,1,Gas:Facility [J] !Hourly
4230,1,Heating:Gas [J] !Hourly
2365,1,WaterSystems:Gas [J] !Hourly
1016,1,Receptacle:InteriorEquipment:Electricity [J] !Hourly
1556,1,Receptacle:InteriorEquipment:Gas [J] !Hourly
70,1,ComplianceLtg:InteriorLights:Electricity [J] !Hourly
345,1,NonComplianceLtg:InteriorLights:Electricity [J] !Hourly
4133,1,General:Fans:Electricity [J] !Hourly
4170,1,ProcessMotors:Fans:Electricity [J] !Hourly
End of Data Dictionary
1,BURBANK-GLENDALE-PASSADE ANN CLG 0.4% CONDNS DB=>MCWB,  34.20,-118.35,  -8.00, 226.00
2,1, 8,21, 0, 1, 0.00,60.00,SummerDesignDay
10,709965988.1359565
46,249737579.99999974
70,96701579.99999997
345,153035999.9999997
992,231449399.99999977
1016,231449399.99999977
1496,63703802.11148206
1532,57764642.17263899
1556,57764642.17263899
2227,17539201.674680376
2365,5939159.938843077
4121,243.70240112072305
4133,40.36388793516475
4170,146.493945049916
4230,0.0
4243,0.0
4354,211239562.75887499
4480,0.0
2,1, 8,21, 0, 2, 0.00,60.00,SummerDesignDay
10,701354498.4241656
46,249737579.99999974
70,96701579.99999997
345,153035999.9999997
992,231449399.99999977
1016,231449399.99999977
1496,64073311.331751558
1532,57764642.17263899
1556,57764642.17263899
2227,17540020.833793519
2365,6308669.159112569
4121,242.02638553456939
4133,40.378007331506029
4170,146.493945049916
4230,0.0
4243,0.0
4354,202627255.5639866
4480,0.0
2,1, 8,21, 0, 3, 0.00,60.00,SummerDesignDay
10,695579731.6762626
46,249737579.99999974
70,96701579.99999997
345,153035999.9999997
992,231449399.99999977
1016,231449399.99999977
1496,63706263.44486631
1532,57764642.17263899
1556,57764642.17263899
2227,17539776.12370146
2365,5941621.272227315
4121,240.9727761012675
4133,40.389544319569797
4170,146.493945049916
4230,0.0
4243,0.0
4354,196852734.5797852
4480,0.0
2,1, 8,21, 0, 4, 0.00,60.00,SummerDesignDay
10,690512602.2786688
46,249737579.99999974
70,96701579.99999997
345,153035999.9999997
992,231449399.99999977
1016,231449399.99999977
1496,64070763.61777148
1532,57764642.17263899
1556,57764642.17263899
2227,17539592.193234967
2365,6306121.445132489
4121,240.055630859095
4133,40.39811159559665
4170,146.493945049916
4230,0.0
4243,0.0
4354,191785790.02980287
4480,0.0
2,1, 8,21, 0, 5, 0.00,60.00,SummerDesignDay
10,686402955.5838877
46,249737579.99999974
70,96701579.99999997
345,153035999.9999997
992,231449399.99999977
1016,231449399.99999977
1496,63708806.99148712
1532,57764642.17263899
1556,57764642.17263899
2227,17539550.44349857
2365,5944164.818848132
4121,239.30772545259846
4133,40.404295483494077
4170,146.493945049916
4230,0.0
4243,0.0
4354,187676185.83266364
4480,0.0
2,1, 8,21, 0, 6, 0.00,60.00,SummerDesignDay
10,708246726.7131741
46,249737579.99999974
70,96701579.99999997
345,153035999.9999997
992,231449399.99999977
1016,231449399.99999977
1496,64068122.42654617
1532,57764642.17263899
1556,57764642.17263899
2227,17655157.870898058
2365,6303480.2539071789
4121,249.47425928244656
4133,48.954965589835598
4170,146.493945049916
4230,0.0
4243,0.0
4354,209404339.36801685
4480,0.0
2,1, 8,21, 0, 7, 0.00,60.00,SummerDesignDay
10,794553559.7239091
46,249737579.99999974
70,96701579.99999997
345,153035999.9999997
992,231449399.99999977
1016,231449399.99999977
1496,63712095.60266791
1532,57764642.17263899
1556,57764642.17263899
2227,17986477.447902655
2365,5947453.430028922
4121,297.7108383413933
4133,87.14465196502946
4170,146.493945049916
4230,0.0
4243,0.0
4354,295379804.56516829
4480,0.0
2,1, 8,21, 0, 8, 0.00,60.00,SummerDesignDay
10,809675058.4619377
46,249737579.99999974
70,96701579.99999997
345,153035999.9999997
992,231449399.99999977
1016,231449399.99999977
1496,64064986.61648595
1532,57764642.17263899
1556,57764642.17263899
2227,17985743.481281833
2365,6300344.443846967
4121,287.0533086370101
4133,65.765935846466
4170,146.493945049916
4230,0.0
4243,0.0
4354,310502047.9273473
4480,0.0
2,1, 8,21, 0, 9, 0.00,60.00,SummerDesignDay
10,848501397.7597019
46,249737579.99999974
70,96701579.99999997
345,153035999.9999997
992,231449399.99999977
1016,231449399.99999977
1496,63714399.45503551
1532,57764642.17263899
1556,57764642.17263899
2227,17640191.8937909
2365,5949757.28239651
4121,296.1452284177266
4133,62.942707303531538
4170,146.493945049916
4230,0.0
4243,0.0
4354,349673929.72068259
4480,0.0
2,1, 8,21, 0,10, 0.00,60.00,SummerDesignDay
10,886337364.5447302
46,249737579.99999974
70,96701579.99999997
345,153035999.9999997
992,231449399.99999977
1016,231449399.99999977
1496,64062594.491797659
1532,57764642.17263899
1556,57764642.17263899
2227,17539811.250518837
2365,6297952.319158669
4121,304.58791747003706
4133,62.85204592006781
4170,146.493945049916
4230,0.0
4243,0.0
4354,387610268.70629379
4480,0.0
2,1, 8,21, 0,11, 0.00,60.00,SummerDesignDay
10,916393602.297416
46,249737579.99999974
70,96701579.99999997
345,153035999.9999997
992,231449399.99999977
1016,231449399.99999977
1496,63716887.136527467
1532,57764642.17263899
1556,57764642.17263899
2227,17539656.218979766
2365,5952244.96388847
4121,309.46375366721346
4133,62.89377853462604
4170,146.493945049916
4230,0.0
4243,0.0
4354,417666656.6146824
4480,0.0
2,1, 8,21, 0,12, 0.00,60.00,SummerDesignDay
10,939341223.9828057
46,249737579.99999974
70,96701579.99999997
345,153035999.9999997
992,231449399.99999977
1016,231449399.99999977
1496,64060157.54117537
1532,57764642.17263899
1556,57764642.17263899
2227,17539360.11050207
2365,6295515.368536385
4121,312.7949661063059
4133,63.04671167438283
4170,146.493945049916
4230,0.0
4243,0.0
4354,440614571.0773375
4480,0.0
2,1, 8,21, 0,13, 0.00,60.00,SummerDesignDay
10,959126095.3042834
46,249737579.99999974
70,96701579.99999997
345,153035999.9999997
992,231449399.99999977
1016,231449399.99999977
1496,63719507.92289262
1532,57764642.17263899
1556,57764642.17263899
2227,17539701.54521327
2365,5954865.750253633
4121,316.4833473192284
4133,63.41613876491693
4170,146.493945049916
4230,0.0
4243,0.0
4354,460399097.2757226
4480,0.0
2,1, 8,21, 0,14, 0.00,60.00,SummerDesignDay
10,981162700.3852768
46,249737579.99999974
70,96701579.99999997
345,153035999.9999997
992,231449399.99999977
1016,231449399.99999977
1496,64057512.748518187
1532,57764642.17263899
1556,57764642.17263899
2227,17554600.525921517
2365,6292870.575879192
4121,323.1731946508938
4133,64.55539936432413
4170,146.493945049916
4230,0.0
4243,0.0
4354,482420796.68616059
4480,0.0
2,1, 8,21, 0,15, 0.00,60.00,SummerDesignDay
10,998482239.6425676
46,249737579.99999974
70,96701579.99999997
345,153035999.9999997
992,231449399.99999977
1016,231449399.99999977
1496,63722038.869539897
1532,57764642.17263899
1556,57764642.17263899
2227,17985925.655518064
2365,5957396.696900909
4121,330.49793258226046
4133,66.17556356799214
4170,146.493945049916
4230,0.0
4243,0.0
4354,499309003.48911717
4480,0.0
2,1, 8,21, 0,16, 0.00,60.00,SummerDesignDay
10,997379335.5565512
46,249737579.99999974
70,96701579.99999997
345,153035999.9999997
992,231449399.99999977
1016,231449399.99999977
1496,64054980.86057204
1532,57764642.17263899
1556,57764642.17263899
2227,17985950.609274299
2365,6290338.687933051
4121,332.76826106914816
4133,66.84604645651675
4170,146.493945049916
4230,0.0
4243,0.0
4354,498206072.1790157
4480,0.0
2,1, 8,21, 0,17, 0.00,60.00,SummerDesignDay
10,976413840.0109998
46,249737579.99999974
70,96701579.99999997
345,153035999.9999997
992,231449399.99999977
1016,231449399.99999977
1496,63724567.6404482
1532,57764642.17263899
1556,57764642.17263899
2227,17739103.27668903
2365,5959925.467809211
4121,327.5972028650407
4133,66.28197722999751
4170,146.493945049916
4230,0.0
4243,0.0
4354,477487429.1371078
4480,0.0
2,1, 8,21, 0,18, 0.00,60.00,SummerDesignDay
10,943698510.2218833
46,249737579.99999974
70,96701579.99999997
345,153035999.9999997
992,231449399.99999977
1016,231449399.99999977
1496,64052451.23868145
1532,57764642.17263899
1556,57764642.17263899
2227,17539962.08509832
2365,6287809.066042462
4121,317.0298157583057
4133,64.03686013734185
4170,146.493945049916
4230,0.0
4243,0.0
4354,444971251.10696926
4480,0.0
2,1, 8,21, 0,19, 0.00,60.00,SummerDesignDay
10,890106700.2653585
46,249737579.99999974
70,96701579.99999997
345,153035999.9999997
992,231449399.99999977
1016,231449399.99999977
1496,63727094.31185421
1532,57764642.17263899
1556,57764642.17263899
2227,17540027.786426926
2365,5962452.139215225
4121,297.73844798389725
4133,60.60465848523973
4170,146.493945049916
4230,0.0
4243,0.0
4354,391379394.74048349
4480,0.0
2,1, 8,21, 0,20, 0.00,60.00,SummerDesignDay
10,849310695.6108029
46,249737579.99999974
70,96701579.99999997
345,153035999.9999997
992,231449399.99999977
1016,231449399.99999977
1496,64049923.80626198
1532,57764642.17263899
1556,57764642.17263899
2227,17539610.312241705
2365,6285281.633622987
4121,284.2396093114843
4133,57.963057516462857
4170,146.493945049916
4230,0.0
4243,0.0
4354,350583821.0589519
4480,0.0
2,1, 8,21, 0,21, 0.00,60.00,SummerDesignDay
10,821104499.619191
46,249737579.99999974
70,96701579.99999997
345,153035999.9999997
992,231449399.99999977
1016,231449399.99999977
1496,63729618.95974494
1532,57764642.17263899
1556,57764642.17263899
2227,17539775.18791942
2365,5964976.78710594
4121,275.4624543077407
4133,56.23682374040915
4170,146.493945049916
4230,0.0
4243,0.0
4354,322377468.9688173
4480,0.0
2,1, 8,21, 0,22, 0.00,60.00,SummerDesignDay
10,766933986.5519172
46,249737579.99999974
70,96701579.99999997
345,153035999.9999997
992,231449399.99999977
1016,231449399.99999977
1496,64047254.88088285
1532,57764642.17263899
1556,57764642.17263899
2227,17540405.888185704
2365,6282612.708243865
4121,258.06717033153395
4133,44.19727778854269
4170,146.493945049916
4230,0.0
4243,0.0
4354,268206342.59656114
4480,0.0
2,1, 8,21, 0,23, 0.00,60.00,SummerDesignDay
10,749913469.2203027
46,249737579.99999974
70,96701579.99999997
345,153035999.9999997
992,231449399.99999977
1016,231449399.99999977
1496,63732904.789459068
1532,57764642.17263899
1556,57764642.17263899
2227,17900177.10555973
2365,5968262.616820082
4121,253.62404217348803
4133,43.93663594431756
4170,146.493945049916
4230,0.0
4243,0.0
4354,250826058.4907009
4480,0.0
2,1, 8,21, 0,24, 0.00,60.00,SummerDesignDay
10,735052882.4138842
46,249737579.99999974
70,96701579.99999997
345,153035999.9999997
992,231449399.99999977
1016,231449399.99999977
1496,64044163.68845974
1532,57764642.17263899
1556,57764642.17263899
2227,17985904.004064606
2365,6279521.515820751
4121,249.94498301978133
4133,43.72624234512311
4170,146.493945049916
4230,0.0
4243,0.0
4354,235879748.46483637
4480,0.0
1,BURBANK-GLENDALE-PASSADE ANN CLG 0.4% CONDNS DP=>MCDB,  34.20,-118.35,  -8.00, 226.00
2,1, 8,21, 0, 1, 0.00,60.00,SummerDesignDay
10,580249529.4463167
46,249737579.99999974
70,96701579.99999997
345,153035999.9999997
992,231449399.99999977
1016,231449399.99999977
1496,63703875.05375187
1532,57764642.17263899
1556,57764642.17263899
2227,17539597.0605888
2365,5939232.881112881
4121,217.28979951754199
4133,40.3208429499516
4170,146.493945049916
4230,0.0
4243,0.0
4354,81522735.09592843
4480,0.0
2,1, 8,21, 0, 2, 0.00,60.00,SummerDesignDay
10,567480009.1822155
46,249737579.99999974
70,96701579.99999997
345,153035999.9999997
992,231449399.99999977
1016,231449399.99999977
1496,64073197.15431576
1532,57764642.17263899
1556,57764642.17263899
2227,17540020.33516964
2365,6308554.981676772
4121,214.65459329993156
4133,40.326550407719967
4170,146.493945049916
4230,0.0
4243,0.0
4354,68752794.1924524
4480,0.0
2,1, 8,21, 0, 3, 0.00,60.00,SummerDesignDay
10,558494057.5071303
46,249737579.99999974
70,96701579.99999997
345,153035999.9999997
992,231449399.99999977
1016,231449399.99999977
1496,63706377.43197402
1532,57764642.17263899
1556,57764642.17263899
2227,17539777.008900599
2365,5941735.259335028
4121,212.77330630935612
4133,40.33018024158362
4170,146.493945049916
4230,0.0
4243,0.0
4354,59767087.724923398
4480,0.0
2,1, 8,21, 0, 4, 0.00,60.00,SummerDesignDay
10,550790451.1572272
46,249737579.99999974
70,96701579.99999997
345,153035999.9999997
992,231449399.99999977
1016,231449399.99999977
1496,64070649.56513804
1532,57764642.17263899
1556,57764642.17263899
2227,17539592.03693234
2365,6306007.392499058
4121,211.2069536646102
4133,40.33258174848282
4170,146.493945049916
4230,0.0
4243,0.0
4354,52063667.913341168
4480,0.0
2,1, 8,21, 0, 5, 0.00,60.00,SummerDesignDay
10,544636628.3681409
46,249737579.99999974
70,96701579.99999997
345,153035999.9999997
992,231449399.99999977
1016,231449399.99999977
1496,63708920.86145651
1532,57764642.17263899
1556,57764642.17263899
2227,17539551.658764587
2365,5944278.68881753
4121,209.9081442206246
4133,40.33418304781001
4170,146.493945049916
4230,0.0
4243,0.0
4354,45909886.80123216
4480,0.0
2,1, 8,21, 0, 6, 0.00,60.00,SummerDesignDay
10,565213291.2685329
46,249737579.99999974
70,96701579.99999997
345,153035999.9999997
992,231449399.99999977
1016,231449399.99999977
1496,64068085.609148148
1532,57764642.17263899
1556,57764642.17263899
2227,17654498.58438247
2365,6303443.43650915
4121,215.55580075456829
4133,44.45540140999222
4170,146.493945049916
4230,0.0
4243,0.0
4354,66371597.12834962
4480,0.0
2,1, 8,21, 0, 7, 0.00,60.00,SummerDesignDay
10,647236996.3201897
46,249737579.99999974
70,96701579.99999997
345,153035999.9999997
992,231449399.99999977
1016,231449399.99999977
1496,64273766.25257706
1532,57764642.17263899
1556,57764642.17263899
2227,17986290.255154775
2365,5947554.825619385
4121,242.93596989564669
4133,60.82002810958034
4170,146.493945049916
4230,561569.2543186852
4243,0.0
4354,148063483.12906508
4480,0.0
2,1, 8,21, 0, 8, 0.00,60.00,SummerDesignDay
10,671571380.4536177
46,249737579.99999974
70,96701579.99999997
345,153035999.9999997
992,231449399.99999977
1016,231449399.99999977
1496,64064808.03597863
1532,57764642.17263899
1556,57764642.17263899
2227,17985586.43460891
2365,6300165.863339638
4121,247.2860193245263
4133,52.35103741214691
4170,146.493945049916
4230,0.0
4243,0.0
4354,172398566.73298956
4480,0.0
2,1, 8,21, 0, 9, 0.00,60.00,SummerDesignDay
10,724852333.3140247
46,249737579.99999974
70,96701579.99999997
345,153035999.9999997
992,231449399.99999977
1016,231449399.99999977
1496,63714636.33768723
1532,57764642.17263899
1556,57764642.17263899
2227,17640934.226681055
2365,5949994.165048243
4121,261.6844038057411
4133,52.440977983158429
4170,146.493945049916
4230,0.0
4243,0.0
4354,226024157.40294007
4480,0.0
2,1, 8,21, 0,10, 0.00,60.00,SummerDesignDay
10,778478294.7872031
46,249737579.99999974
70,96701579.99999997
345,153035999.9999997
992,231449399.99999977
1016,231449399.99999977
1496,64062357.600900929
1532,57764642.17263899
1556,57764642.17263899
2227,17539811.54641267
2365,6297715.428261938
4121,273.76696303170749
4133,53.42578174337724
4170,146.493945049916
4230,0.0
4243,0.0
4354,279751229.4738276
4480,0.0
2,1, 8,21, 0,11, 0.00,60.00,SummerDesignDay
10,813872982.1246429
46,249737579.99999974
70,96701579.99999997
345,153035999.9999997
992,231449399.99999977
1016,231449399.99999977
1496,63717123.89145748
1532,57764642.17263899
1556,57764642.17263899
2227,17539656.655712636
2365,5952481.718818501
4121,281.17500615472889
4133,54.201182475219827
4170,146.493945049916
4230,0.0
4243,0.0
4354,315146064.29392388
4480,0.0
2,1, 8,21, 0,12, 0.00,60.00,SummerDesignDay
10,836625311.7441372
46,249737579.99999974
70,96701579.99999997
345,153035999.9999997
992,231449399.99999977
1016,231449399.99999977
1496,64059920.85293504
1532,57764642.17263899
1556,57764642.17263899
2227,17539360.18832259
2365,6295278.680296053
4121,285.4624068112024
4133,54.82559713283224
4170,146.493945049916
4230,0.0
4243,0.0
4354,337898686.09340789
4480,0.0
2,1, 8,21, 0,13, 0.00,60.00,SummerDesignDay
10,854089101.9894466
46,249737579.99999974
70,96701579.99999997
345,153035999.9999997
992,231449399.99999977
1016,231449399.99999977
1496,63719744.293777707
1532,57764642.17263899
1556,57764642.17263899
2227,17539702.75434407
2365,5955102.121138708
4121,289.42476976641327
4133,55.4159904211712
4170,146.493945049916
4230,0.0
4243,0.0
4354,355362129.810333
4480,0.0
2,1, 8,21, 0,14, 0.00,60.00,SummerDesignDay
10,873904933.5966812
46,249737579.99999974
70,96701579.99999997
345,153035999.9999997
992,231449399.99999977
1016,231449399.99999977
1496,64057276.2859263
1532,57764642.17263899
1556,57764642.17263899
2227,17553854.908268505
2365,6292634.113287304
4121,296.31370690608659
4133,56.50006813213956
4170,146.493945049916
4230,0.0
4243,0.0
4354,375163802.37470605
4480,0.0
2,1, 8,21, 0,15, 0.00,60.00,SummerDesignDay
10,889900421.9440166
46,249737579.99999974
70,96701579.99999997
345,153035999.9999997
992,231449399.99999977
1016,231449399.99999977
1496,63722275.03407543
1532,57764642.17263899
1556,57764642.17263899
2227,17985926.879731738
2365,5957632.861436442
4121,303.59755282530008
4133,57.94002191321292
4170,146.493945049916
4230,0.0
4243,0.0
4354,390727211.4667321
4480,0.0
2,1, 8,21, 0,16, 0.00,60.00,SummerDesignDay
10,888718765.015851
46,249737579.99999974
70,96701579.99999997
345,153035999.9999997
992,231449399.99999977
1016,231449399.99999977
1496,64054744.612776238
1532,57764642.17263899
1556,57764642.17263899
2227,17985950.23185627
2365,6290102.440137246
4121,305.563643458835
4133,58.60127174828534
4170,146.493945049916
4230,0.0
4243,0.0
4354,389545529.22035148
4480,0.0
2,1, 8,21, 0,17, 0.00,60.00,SummerDesignDay
10,869572033.9493978
46,249737579.99999974
70,96701579.99999997
345,153035999.9999997
992,231449399.99999977
1016,231449399.99999977
1496,63724803.605762097
1532,57764642.17263899
1556,57764642.17263899
2227,17739845.64015874
2365,5960161.433123105
4121,299.92145604269606
4133,58.128894831660357
4170,146.493945049916
4230,0.0
4243,0.0
4354,370644908.38778319
4480,0.0
2,1, 8,21, 0,18, 0.00,60.00,SummerDesignDay
10,837860467.2355813
46,249737579.99999974
70,96701579.99999997
345,153035999.9999997
992,231449399.99999977
1016,231449399.99999977
1496,64142334.90630898
1532,57764642.17263899
1556,57764642.17263899
2227,17539962.067872108
2365,6287573.0258818869
4121,289.33039570943216
4133,56.26308709777203
4170,146.493945049916
4230,90119.7077881
4243,0.0
4354,339133235.8373134
4480,0.0
2,1, 8,21, 0,19, 0.00,60.00,SummerDesignDay
10,785304659.740364
46,249737579.99999974
70,96701579.99999997
345,153035999.9999997
992,231449399.99999977
1016,231449399.99999977
1496,63966836.80316184
1532,57764642.17263899
1556,57764642.17263899
2227,17540143.528853854
2365,5962635.177652332
4121,269.95649232853159
4133,53.37829898224761
4170,146.493945049916
4230,239559.45287051225
4243,0.0
4354,286577266.25501766
4480,0.0
2,1, 8,21, 0,20, 0.00,60.00,SummerDesignDay
10,743403719.5329397
46,249737579.99999974
70,96701579.99999997
345,153035999.9999997
992,231449399.99999977
1016,231449399.99999977
1496,64435361.032933589
1532,57764642.17263899
1556,57764642.17263899
2227,17539383.92773834
2365,6285078.587674052
4121,256.21190078520518
4133,51.11131509969756
4170,146.493945049916
4230,385640.27262054217
4243,0.0
4354,244677099.39330048
4480,0.0
2,1, 8,21, 0,21, 0.00,60.00,SummerDesignDay
10,708142226.5330641
46,249737579.99999974
70,96701579.99999997
345,153035999.9999997
992,231449399.99999977
1016,231449399.99999977
1496,64252299.79641099
1532,57764642.17263899
1556,57764642.17263899
2227,17539773.693216437
2365,5965289.899362541
4121,246.74007075023088
4133,49.6233215107674
4170,146.493945049916
4230,522367.7244094633
4243,0.0
4354,209415226.09977705
4480,0.0
2,1, 8,21, 0,22, 0.00,60.00,SummerDesignDay
10,655872263.8331137
46,249737579.99999974
70,96701579.99999997
345,153035999.9999997
992,231449399.99999977
1016,231449399.99999977
1496,64047303.50652974
1532,57764642.17263899
1556,57764642.17263899
2227,17540492.841779896
2365,6282661.333890748
4121,233.53085220012958
4133,42.95249284792719
4170,146.49394504991597
4230,0.0
4243,0.0
4354,157144557.4604816
4480,0.0
2,1, 8,21, 0,23, 0.00,60.00,SummerDesignDay
10,631828313.0417028
46,249737579.99999974
70,96701579.99999997
345,153035999.9999997
992,231449399.99999977
1016,231449399.99999977
1496,63732576.004821907
1532,57764642.17263899
1556,57764642.17263899
2227,17899424.856910886
2365,5967933.832182921
4121,228.03199285052654
4133,42.6819775147723
4170,146.493945049916
4230,0.0
4243,0.0
4354,132741680.15279907
4480,0.0
2,1, 8,21, 0,24, 0.00,60.00,SummerDesignDay
10,610905787.2976936
46,249737579.99999974
70,96701579.99999997
345,153035999.9999997
992,231449399.99999977
1016,231449399.99999977
1496,64044492.449981618
1532,57764642.17263899
1556,57764642.17263899
2227,17985903.69385402
2365,6279850.277342622
4121,223.3099157240652
4133,42.47844058063363
4170,146.493945049916
4230,0.0
4243,0.0
4354,111732680.29392398
4480,0.0
1,BURBANK-GLENDALE-PASSADE ANN HTG 99.6% CONDNS DB,  34.20,-118.35,  -8.00, 226.00
2,1, 1,21, 0, 1, 0.00,60.00,WinterDesignDay
10,72197.61747254388
46,0.0
70,0.0
345,0.0
992,0.0
1016,0.0
1496,328747954.61706796
1532,0.0
1556,0.0
2227,72000.0
2365,579679.1997937226
4121,197.6174725438141
4133,40.25876449615723
4170,146.493945049916
4230,328168275.41727426
4243,0.0
4354,0.0
4480,0.0
2,1, 1,21, 0, 2, 0.00,60.00,WinterDesignDay
10,72208.86987983182
46,0.0
70,0.0
345,0.0
992,0.0
1016,0.0
1496,406553609.7683174
1532,0.0
1556,0.0
2227,72000.0
2365,833483.936473899
4121,208.86987983175448
4133,40.25876449615723
4170,146.493945049916
4230,405720125.83184358
4243,0.0
4354,0.0
4480,0.0
2,1, 1,21, 0, 3, 0.00,60.00,WinterDesignDay
10,72217.82978134163
46,0.0
70,0.0
345,0.0
992,0.0
1016,0.0
1496,471934120.56185
1532,0.0
1556,0.0
2227,72000.0
2365,833372.2904352646
4121,217.82978134156816
4133,40.25876449615723
4170,146.493945049916
4230,471100748.27141478
4243,0.0
4354,0.0
4480,0.0
2,1, 1,21, 0, 4, 0.00,60.00,WinterDesignDay
10,72224.21572118347
46,0.0
70,0.0
345,0.0
992,0.0
1016,0.0
1496,523174388.06546857
1532,0.0
1556,0.0
2227,72000.0
2365,833413.0588825962
4121,224.21572118339274
4133,40.25876449615723
4170,146.493945049916
4230,522340975.0065861
4243,0.0
4354,0.0
4480,0.0
2,1, 1,21, 0, 5, 0.00,60.00,WinterDesignDay
10,72229.16627408244
46,0.0
70,0.0
345,0.0
992,0.0
1016,0.0
1496,569618244.3465673
1532,0.0
1556,0.0
2227,72000.0
2365,833295.4676707607
4121,229.16627408236668
4133,40.25876449615723
4170,146.493945049916
4230,568784948.8788965
4243,0.0
4354,0.0
4480,0.0
2,1, 1,21, 0, 6, 0.00,60.00,WinterDesignDay
10,10585886.912196618
46,0.0
70,0.0
345,0.0
992,0.0
1016,0.0
1496,790815168.8282172
1532,0.0
1556,0.0
2227,72000.0
2365,670267.1543730949
4121,257.178418269032
4133,64.81497327851327
4170,146.493945049916
4230,790144901.6738441
4243,0.0
4354,10513629.733778349
4480,0.0
2,1, 1,21, 0, 7, 0.00,60.00,WinterDesignDay
10,32429158.415631139
46,0.0
70,0.0
345,0.0
992,0.0
1016,0.0
1496,1689705054.2735749
1532,0.0
1556,0.0
2227,72000.0
2365,742848.8307284834
4121,424.993286200666
4133,132.16662825829776
4170,146.493945049916
4230,1688962205.4428464
4243,0.0
4354,32356733.422344939
4480,0.0
2,1, 1,21, 0, 8, 0.00,60.00,WinterDesignDay
10,5885479.817888959
46,0.0
70,0.0
345,0.0
992,0.0
1016,0.0
1496,1409375336.3450385
1532,0.0
1556,0.0
2227,72000.0
2365,833506.4326747262
4121,327.01595318391989
4133,55.432605501825729
4170,146.493945049916
4230,1408541829.9123636
4243,0.0
4354,5813152.801935775
4480,0.0
2,1, 1,21, 0, 9, 0.00,60.00,WinterDesignDay
10,72294.71136967105
46,0.0
70,0.0
345,0.0
992,0.0
1016,0.0
1496,1214334072.886415
1532,0.0
1556,0.0
2227,72000.0
2365,833339.9305206784
4121,294.7113696709762
4133,41.08882401614917
4170,146.493945049916
4230,1213500732.9558943
4243,0.0
4354,0.0
4480,0.0
2,1, 1,21, 0,10, 0.00,60.00,WinterDesignDay
10,72284.53180104314
46,0.0
70,0.0
345,0.0
992,0.0
1016,0.0
1496,1129056045.4877444
1532,0.0
1556,0.0
2227,72000.0
2365,833380.9172091552
4121,284.5318010430522
4133,40.54392143321108
4170,146.493945049916
4230,1128222664.5705353
4243,0.0
4354,0.0
4480,0.0
2,1, 1,21, 0,11, 0.00,60.00,WinterDesignDay
10,72278.40367716021
46,0.0
70,0.0
345,0.0
992,0.0
1016,0.0
1496,1077660064.2847925
1532,0.0
1556,0.0
2227,72000.0
2365,833292.0609317969
4121,278.40367716013938
4133,40.39905753683573
4170,146.493945049916
4230,1076826772.2238608
4243,0.0
4354,0.0
4480,0.0
2,1, 1,21, 0,12, 0.00,60.00,WinterDesignDay
10,72274.3058312318
46,0.0
70,0.0
345,0.0
992,0.0
1016,0.0
1496,1043504288.691592
1532,0.0
1556,0.0
2227,72000.0
2365,579602.1558852831
4121,274.30583123173576
4133,40.32148046750545
4170,146.493945049916
4230,1042924686.5357066
4243,0.0
4354,0.0
4480,0.0
2,1, 1,21, 0,13, 0.00,60.00,WinterDesignDay
10,72271.46084892369
46,0.0
70,0.0
345,0.0
992,0.0
1016,0.0
1496,1020297863.9947853
1532,0.0
1556,0.0
2227,72000.0
2365,833383.6549417735
4121,271.4608489236028
4133,40.273395917451299
4170,146.493945049916
4230,1019464480.3398435
4243,0.0
4354,0.0
4480,0.0
2,1, 1,21, 0,14, 0.00,60.00,WinterDesignDay
10,72269.45282195775
46,0.0
70,0.0
345,0.0
992,0.0
1016,0.0
1496,1003628781.2926327
1532,0.0
1556,0.0
2227,72000.0
2365,833425.0989686493
4121,269.45282195769667
4133,40.25876449615723
4170,146.493945049916
4230,1002795356.1936641
4243,0.0
4354,0.0
4480,0.0
2,1, 1,21, 0,15, 0.00,60.00,WinterDesignDay
10,72268.03713014614
46,0.0
70,0.0
345,0.0
992,0.0
1016,0.0
1496,991867947.889468
1532,0.0
1556,0.0
2227,72000.0
2365,833321.0999990839
4121,268.0371301460766
4133,40.25876449615723
4170,146.493945049916
4230,991034626.7894689
4243,0.0
4354,0.0
4480,0.0
2,1, 1,21, 0,16, 0.00,60.00,WinterDesignDay
10,72267.00855159763
46,0.0
70,0.0
345,0.0
992,0.0
1016,0.0
1496,983227474.409514
1532,0.0
1556,0.0
2227,72000.0
2365,833348.6375038355
4121,267.0085515975257
4133,40.25876449615723
4170,146.493945049916
4230,982394125.7720101
4243,0.0
4354,0.0
4480,0.0
2,1, 1,21, 0,17, 0.00,60.00,WinterDesignDay
10,72266.25485513867
46,0.0
70,0.0
345,0.0
992,0.0
1016,0.0
1496,977015623.4648649
1532,0.0
1556,0.0
2227,72000.0
2365,833388.8020161302
4121,266.25485513859749
4133,40.25876449615723
4170,146.493945049916
4230,976182234.6628488
4243,0.0
4354,0.0
4480,0.0
2,1, 1,21, 0,18, 0.00,60.00,WinterDesignDay
10,72265.70187925847
46,0.0
70,0.0
345,0.0
992,0.0
1016,0.0
1496,972169873.4404461
1532,0.0
1556,0.0
2227,72000.0
2365,579580.65985718
4121,265.70187925840028
4133,40.25876449615723
4170,146.493945049916
4230,971590292.7805889
4243,0.0
4354,0.0
4480,0.0
2,1, 1,21, 0,19, 0.00,60.00,WinterDesignDay
10,72265.30902312823
46,0.0
70,0.0
345,0.0
992,0.0
1016,0.0
1496,969194471.8881102
1532,0.0
1556,0.0
2227,72000.0
2365,833354.077670503
4121,265.30902312816718
4133,40.25876449615723
4170,146.493945049916
4230,968361117.8104397
4243,0.0
4354,0.0
4480,0.0
2,1, 1,21, 0,20, 0.00,60.00,WinterDesignDay
10,72265.01775827918
46,0.0
70,0.0
345,0.0
992,0.0
1016,0.0
1496,966791138.0996876
1532,0.0
1556,0.0
2227,72000.0
2365,833392.9417690158
4121,265.0177582791181
4133,40.25876449615723
4170,146.493945049916
4230,965957745.1579186
4243,0.0
4354,0.0
4480,0.0
2,1, 1,21, 0,21, 0.00,60.00,WinterDesignDay
10,72264.7974975727
46,0.0
70,0.0
345,0.0
992,0.0
1016,0.0
1496,964903439.7719637
1532,0.0
1556,0.0
2227,72000.0
2365,833433.5712378585
4121,264.79749757260267
4133,40.25876449615723
4170,146.493945049916
4230,964070006.2007259
4243,0.0
4354,0.0
4480,0.0
2,1, 1,21, 0,22, 0.00,60.00,WinterDesignDay
10,846464.1200043715
46,0.0
70,0.0
345,0.0
992,0.0
1016,0.0
1496,758746636.9706342
1532,0.0
1556,0.0
2227,846199.4928434221
2365,833470.2868463798
4121,264.6271609494759
4133,40.25876449615722
4170,146.49394504991603
4230,757913166.6837877
4243,0.0
4354,0.0
4480,0.0
2,1, 1,21, 0,23, 0.00,60.00,WinterDesignDay
10,72186.75270954614
46,0.0
70,0.0
345,0.0
992,0.0
1016,0.0
1496,316068357.49687156
1532,0.0
1556,0.0
2227,72000.0
2365,773476.1189747208
4121,186.75270954607323
4133,40.25876449615723
4170,146.493945049916
4230,315294881.37789687
4243,0.0
4354,0.0
4480,0.0
2,1, 1,21, 0,24, 0.00,60.00,WinterDesignDay
10,72188.19202961576
46,0.0
70,0.0
345,0.0
992,0.0
1016,0.0
1496,353790758.0968127
1532,0.0
1556,0.0
2227,72000.0
2365,639559.0403846288
4121,188.1920296156872
4133,40.310025097269107
4170,146.493945049916
4230,353151199.05642816
4243,0.0
4354,0.0
4480,0.0
1,BURBANK-GLENDALE-PASSADE AUG CLG 0.4% CONDNS DB=>MCWB,  34.20,-118.35,  -8.00, 226.00
2,1, 8,21, 0, 1, 0.00,60.00,SummerDesignDay
10,761375503.7932704
46,249737579.99999974
70,96701579.99999997
345,153035999.9999997
992,231449399.99999977
1016,231449399.99999977
1496,63703802.11148206
1532,57764642.17263899
1556,57764642.17263899
2227,17539201.674680376
2365,5939159.938843077
4121,253.00817542466619
4133,40.37366465282468
4170,146.493945049916
4230,0.0
4243,0.0
4354,262649069.11041475
4480,0.0
2,1, 8,21, 0, 2, 0.00,60.00,SummerDesignDay
10,752423347.5077411
46,249737579.99999974
70,96701579.99999997
345,153035999.9999997
992,231449399.99999977
1016,231449399.99999977
1496,64073311.331751558
1532,57764642.17263899
1556,57764642.17263899
2227,17540020.833793519
2365,6308669.159112569
4121,251.35988666149258
4133,40.39098566949478
4170,146.493945049916
4230,0.0
4243,0.0
4354,253696095.31406085
4480,0.0
2,1, 8,21, 0, 3, 0.00,60.00,SummerDesignDay
10,746450669.5405307
46,249737579.99999974
70,96701579.99999997
345,153035999.9999997
992,231449399.99999977
1016,231449399.99999977
1496,63706263.44486631
1532,57764642.17263899
1556,57764642.17263899
2227,17539776.12370146
2365,5941621.272227315