Program Version,EnergyPlus, Version 9.0.1-bb7ca4f0da, YMD=2019.12.17 18:23
1,5,Environment Title[],Latitude[deg],Longitude[deg],Time Zone[],Elevation[m]
2,8,Day of Simulation[],Month[],Day of Month[],DST Indicator[1=yes 0=no],Hour[],StartMinute[],EndMinute[],DayType
3,5,Cumulative Day of Simulation[],Month[],Day of Month[],DST Indicator[1=yes 0=no],DayType  ! When Daily Meters Requested
4,2,Cumulative Days of Simulation[],Month[]  ! When Monthly Meters Requested
5,1,Cumulative Days of Simulation[] ! When Run Period Meters Requested
6,1,Calendar Year of Simulation[] ! When Annual Meters Requested
4114,1,Fans:Electricity [J] !Hourly
1017,1,Receptacle:InteriorEquipment:Electricity [J] !Hourly
47,1,InteriorLights:Electricity [J] !Hourly
2228,1,WaterSystems:Electricity [J] !Hourly
1497,1,Gas:Facility [J] !Hourly
11,1,Electricity:Facility [J] !Hourly
993,1,InteriorEquipment:Electricity [J] !Hourly
4473,1,Pumps:Electricity [J] !Hourly
4210,1,Heating:Electricity [J] !Hourly
4348,1,Cooling:Electricity [J] !Hourly
1533,1,InteriorEquipment:Gas [J] !Hourly
4236,1,Heating:Gas [J] !Hourly
2366,1,WaterSystems:Gas [J] !Hourly
1557,1,Receptacle:InteriorEquipment:Gas [J] !Hourly
71,1,ComplianceLtg:InteriorLights:Electricity [J] !Hourly
346,1,NonComplianceLtg:InteriorLights:Electricity [J] !Hourly
4126,1,General:Fans:Electricity [J] !Hourly
4162,1,ProcessMotors:Fans:Electricity [J] !Hourly
End of Data Dictionary
1,PALM-SPRINGS-INTL_722868_CZ2010,  33.83,-116.50,  -8.00, 137.00
2,1, 1, 1, 0, 1, 0.00,60.00,Holiday
11,66335310.82537524
47,24156278.99999996
71,4835078.999999999
346,19321199.999999968
993,18722069.99999997
1017,18722069.99999997
1497,1036803.7371187409
1533,0.0
1557,0.0
2228,799255.3799648944
2366,1036803.7371187409
4114,22657706.445410395
4126,8458341.339612136
4162,14199365.105798256
4210,0.0
4236,0.0
4348,0.0
4473,0.0
2,1, 1, 1, 0, 2, 0.00,60.00,Holiday
11,67134674.69923872
47,24156278.99999996
71,4835078.999999999
346,19321199.999999968
993,18722069.99999997
1017,18722069.99999997
1497,1036639.8789899157
1533,0.0
1557,0.0
2228,1598619.2538283908
2366,1036639.8789899157
4114,22657706.445410395
4126,8458341.339612136
4162,14199365.105798256
4210,0.0
4236,0.0
4348,0.0
4473,0.0
2,1, 1, 1, 0, 3, 0.00,60.00,Holiday
11,66335517.465538259
47,24156278.99999996
71,4835078.999999999
346,19321199.999999968
993,18722069.99999997
1017,18722069.99999997
1497,1036728.7940429015
1533,0.0
1557,0.0
2228,799462.0201279129
2366,1036728.7940429015
4114,22657706.445410395
4126,8458341.339612136
4162,14199365.105798256
4210,0.0
4236,0.0
4348,0.0
4473,0.0
2,1, 1, 1, 0, 4, 0.00,60.00,Holiday
11,67127609.63713572
47,24156278.99999996
71,4835078.999999999
346,19321199.999999968
993,18722069.99999997
1017,18722069.99999997
1497,1128775.9173588739
1533,0.0
1557,0.0
2228,1587294.194306409
2366,1032469.0990418852
4114,22661966.442829357
4126,8458341.339612136
4162,14199365.105798256
4210,0.0
4236,96306.81831698885
4348,0.0
4473,0.0
2,1, 1, 1, 0, 5, 0.00,60.00,Holiday
11,66537579.95290761
47,24156278.99999996
71,4835078.999999999
346,19321199.999999968
993,18722069.99999997
1017,18722069.99999997
1497,5731531.1147377309
1533,0.0
1557,0.0
2228,793672.2262197973
2366,1032561.0783346922
4114,22865558.72668786
4126,8458341.339612136
4162,14199365.105798256
4210,0.0
4236,4698970.036403039
4348,0.0
4473,0.0
2,1, 1, 1, 0, 6, 0.00,60.00,Holiday
11,159156648.21591298
47,52754678.99999992
71,4835078.999999999
346,47919599.99999992
993,47320469.999999929
1017,47320469.999999929
1497,8409272.97745995
1533,0.0
1557,0.0
2228,793738.2777017175
2366,1297487.9364569574
4114,25004446.76794546
4126,10490501.918585619
4162,14199365.105798256
4210,33283314.170265847
4236,7111785.0410029939
4348,0.0
4473,0.0
2,1, 1, 1, 0, 7, 0.00,60.00,Holiday
11,216474412.80017574
47,74197425.58443065
71,4829025.584430775
346,69368399.9999999
993,68769269.9999999
1017,68769269.9999999
1497,438171117.76651576
1533,28597212.921243654
1557,28597212.921243654
2228,1598698.031440033
2366,1036846.1998919438
4114,42760929.54919925
4126,10490501.91858562
4162,14199365.105798256
4210,29148089.63510587
4236,408537058.6453801
4348,0.0
4473,0.0
2,1, 1, 1, 0, 8, 0.00,60.00,Holiday
11,200975232.33769886
47,74026515.30637476
71,4658115.306374883
346,69368399.9999999
993,68769269.9999999
1017,68769269.9999999
1497,237947009.23347078
1533,28597212.921243654
1557,28597212.921243654
2228,1633624.0493609203
2366,1188787.3765672246
4114,33897576.24460519
4126,10490501.918585619
4162,14199365.105798256
4210,22648246.737358106
4236,208161008.9356599
4348,0.0
4473,0.0
2,1, 1, 1, 0, 9, 0.00,60.00,Holiday
11,211779264.82227908
47,77220145.16224224
71,7851745.1622423599
346,69368399.9999999
993,72641339.99999988
1017,72641339.99999988
1497,429839572.5117662
1533,0.0
1557,0.0
2228,2486905.9368456716
2366,1184681.068168367
4114,38368494.4136727
4126,19468646.51917236
4162,14199365.105798256
4210,20514136.974933436
4236,428654891.4435979
4348,0.0
4473,548242.3345851216
2,1, 1, 1, 0,10, 0.00,60.00,Holiday
11,199939715.05146209
47,77228480.97771563
71,7860080.977715753
346,69368399.9999999
993,72641339.99999988
1017,72641339.99999988
1497,312282707.9111831
1533,0.0
1557,0.0
2228,2524514.517429809
2366,1335955.9677288167
4114,33146419.770498676
4126,16519577.605455207
4162,14199365.105798256
4210,14153085.362731338
4236,310946751.9434543
4348,0.0
4473,245874.4230867672
2,1, 1, 1, 0,11, 0.00,60.00,Holiday
11,197778711.53270585
47,75839924.60062333
71,27920324.60062337
346,47919599.99999992
993,74424959.99999996
1017,74424959.99999996
1497,177895975.72037328
1533,0.0
1557,0.0
2228,4743565.015093299
2366,2003298.7158627129
4114,32082868.75337229
4126,16519577.605455207
4162,14199365.105798256
4210,10482260.01132462
4236,175892677.00451053
4348,0.0
4473,205133.15229242107
2,1, 1, 1, 0,12, 0.00,60.00,Holiday
11,196810704.69680948
47,75958998.02252406
71,28039398.022524097
346,47919599.99999992
993,74424959.99999996
1017,74424959.99999996
1497,130154885.84024418
1533,11438885.168497468
1557,11438885.168497468
2228,5790598.437770801
2366,2030777.7241602273
4114,31113906.722665706
4126,16519577.605455207
4162,14199365.105798256
4210,9322055.712278232
4236,116685222.9475865
4348,0.0
4473,200185.80157077948
2,1, 1, 1, 0,13, 0.00,60.00,Holiday
11,221900063.06270487
47,85884078.75634398
71,37964478.75634399
346,47919599.99999992
993,89913239.99999997
1017,89913239.99999997
1497,77945188.76633957
1533,11438885.168497468
1557,11438885.168497468
2228,6052321.792343296
2366,2080805.6099667834
4114,30778377.904703306
4126,16519577.605455207
4162,14199365.105798256
4210,9073744.187585574
4236,64425497.98787531
4348,0.0
4473,198300.42172881217
2,1, 1, 1, 0,14, 0.00,60.00,Holiday
11,221751032.48537667
47,85781092.4546581
71,37861492.454658139
346,47919599.99999992
993,89913239.99999997
1017,89913239.99999997
1497,62622712.683519888
1533,0.0
1557,0.0
2228,6052125.41472959
2366,2393479.953289183
4114,30728478.742392318
4126,16519577.605455207
4162,14199365.105798256
4210,9030443.250767688
4236,60229232.7302307
4348,47395.576761194454
4473,198257.04606785073
2,1, 1, 1, 0,15, 0.00,60.00,Holiday
11,222974080.80329646
47,85845036.26699069
71,37925436.26699072
346,47919599.99999992
993,89913239.99999997
1017,89913239.99999997
1497,49390194.72041491
1533,0.0
1557,0.0
2228,5944450.230157286
2366,2060466.0788450426
4114,31034452.231903078
4126,16544846.336504544
4162,14199365.105798256
4210,8596368.788008167
4236,47329728.64156986
4348,1442369.2172129376
4473,198164.06902439035
2,1, 1, 1, 0,16, 0.00,60.00,Holiday
11,223745791.7756709
47,85657344.07984236
71,37737744.079842399
346,47919599.99999992
993,89913239.99999997
1017,89913239.99999997
1497,42612090.42217229
1533,0.0
1557,0.0
2228,5996968.1855783029
2366,2061626.7994976044
4114,31257896.423856304
4126,16581227.850739424
4162,14199365.105798256
4210,8350452.66617308
4236,40550463.62267469
4348,2371721.740246849
4473,198168.67997409946
2,1, 1, 1, 0,17, 0.00,60.00,Holiday
11,226608784.78903038
47,88978047.84037556
71,41058447.84037558
346,47919599.99999992
993,89913239.99999997
1017,89913239.99999997
1497,71732334.4801057
1533,28597212.921243654
1557,28597212.921243654
2228,7124601.347936049
2366,2327849.3208121617
4114,30996031.151653604
4126,16595206.99638139
4162,14199365.105798256
4210,8397735.213551008
4236,40807272.23804988
4348,1000959.5741780643
4473,198169.66133617526
2,1, 1, 1, 0,18, 0.00,60.00,Holiday
11,198647254.8229599
47,78647111.99999994
71,30727511.99999999
346,47919599.99999992
993,74424959.99999996
1017,74424959.99999996
1497,84850510.41342706
1533,28597212.921243654
1557,28597212.921243654
2228,5944536.968272201
2366,2102484.5886718009
4114,30728031.208695786
4126,16519577.605455207
4162,14199365.105798256
4210,8659289.33040305
4236,54150812.903511609
4348,45145.62616732782
4473,198179.68942165067
2,1, 1, 1, 0,19, 0.00,60.00,Holiday
11,241160193.60195876
47,106749035.99999982
71,15931835.999999995
346,90817199.99999984
993,101834279.99999984
1017,101834279.99999984
1497,141053005.68799383
1533,28597212.921243654
1557,28597212.921243654
2228,3670082.3447098738
2366,1685247.2848853854
4114,28686782.132279979
4126,14487417.026481722
4162,14199365.105798256
4210,19832.40593910186
4236,110770545.48186478
4348,0.0
4473,200180.71903004778
2,1, 1, 1, 0,20, 0.00,60.00,Holiday
11,270767599.0089345
47,124250678.9999998
71,4835078.999999999
346,119415599.9999998
993,118816469.99999982
1017,118816469.99999982
1497,1700855.454949839
1533,0.0
1557,0.0
2228,5042743.563524397
2366,1700855.454949839
4114,22657706.445410395
4126,8458341.339612136
4162,14199365.105798256
4210,0.0
4236,0.0
4348,0.0
4473,0.0
2,1, 1, 1, 0,21, 0.00,60.00,Holiday
11,298402537.45492139
47,138549878.9999998
71,4835078.999999999
346,133714799.99999979
993,133115669.99999979
1017,133115669.99999979
1497,1654537.2322124253
1533,0.0
1557,0.0
2228,4079282.009511303
2366,1654537.2322124253
4114,22657706.445410395
4126,8458341.339612136
4162,14199365.105798256
4210,0.0
4236,0.0
4348,0.0
4473,0.0
2,1, 1, 1, 0,22, 0.00,60.00,Holiday
11,268288055.10879023
47,124250678.9999998
71,4835078.999999999
346,119415599.9999998
993,118816469.99999982
1017,118816469.99999982
1497,1627028.1301108963
1533,0.0
1557,0.0
2228,2563199.6633800787
2366,1627028.1301108963
4114,22657706.445410395
4126,8458341.339612136
4162,14199365.105798256
4210,0.0
4236,0.0
4348,0.0
4473,0.0
2,1, 1, 1, 0,23, 0.00,60.00,Holiday
11,210161826.42010535
47,95652278.99999984
71,4835078.999999999
346,90817199.99999984
993,90218069.99999985
1017,90218069.99999985
1497,1050298.2684686413
1533,0.0
1557,0.0
2228,1633770.9746952155
2366,1050298.2684686413
4114,22657706.445410395
4126,8458341.339612136
4162,14199365.105798256
4210,0.0
4236,0.0
4348,0.0
4473,0.0
2,1, 1, 1, 0,24, 0.00,60.00,Holiday
11,123615711.4370371
47,52754678.99999992
71,4835078.999999999
346,47919599.99999992
993,47320469.999999929
1017,47320469.999999929
1497,1032481.8621697815
1533,0.0
1557,0.0
2228,882855.9916267577
2366,1032481.8621697815
4114,22657706.445410395
4126,8458341.339612136
4162,14199365.105798256
4210,0.0
4236,0.0
4348,0.0
4473,0.0
2,2, 1, 2, 0, 1, 0.00,60.00,Friday
11,66230787.07698124
47,24156278.99999996
71,4835078.999999999
346,19321199.999999968
993,18722069.99999997
1017,18722069.99999997
1497,1025658.6691250959
1533,0.0
1557,0.0
2228,694731.631570901
2366,1025658.6691250959
4114,22657706.445410395
4126,8458341.339612136
4162,14199365.105798256
4210,0.0
4236,0.0
4348,0.0
4473,0.0
2,2, 1, 2, 0, 2, 0.00,60.00,Friday
11,67112308.66260322
47,24156278.99999996
71,4835078.999999999
346,19321199.999999968
993,18722069.99999997
1017,18722069.99999997
1497,1029981.4474876929
1533,0.0
1557,0.0
2228,1576253.2171928746
2366,1029981.4474876929
4114,22657706.445410395
4126,8458341.339612136
4162,14199365.105798256
4210,0.0
4236,0.0
4348,0.0
4473,0.0
2,2, 1, 2, 0, 3, 0.00,60.00,Friday
11,66324241.050863537
47,24156278.99999996
71,4835078.999999999
346,19321199.999999968
993,18722069.99999997
1017,18722069.99999997
1497,1030008.0406914989
1533,0.0
1557,0.0
2228,788185.6054531969
2366,1030008.0406914989
4114,22657706.445410395
4126,8458341.339612136
4162,14199365.105798256
4210,0.0
4236,0.0
4348,0.0
4473,0.0
2,2, 1, 2, 0, 4, 0.00,60.00,Friday
11,66326019.79569569
47,24156278.99999996
71,4835078.999999999
346,19321199.999999968
993,18722069.99999997
1017,18722069.99999997
1497,1190821.9792554619
1533,0.0
1557,0.0
2228,782656.9847591735
2366,1025622.5542575893
4114,22665013.81093657
4126,8458341.339612136
4162,14199365.105798256
4210,0.0
4236,165199.4249978726
4348,0.0
4473,0.0
2,2, 1, 2, 0, 5, 0.00,60.00,Friday
11,66497975.129432689
47,24156278.99999996
71,4835078.999999999
346,19321199.999999968
993,18722069.99999997
1017,18722069.99999997
1497,5079010.447881489
1533,0.0
1557,0.0
2228,782619.8374873132
2366,1025532.6651900186
4114,22837006.291945429
4126,8458341.339612136
4162,14199365.105798256
4210,0.0
4236,4053477.7826914705
4348,0.0
4473,0.0
2,2, 1, 2, 0, 6, 0.00,60.00,Friday
11,152641399.71748675
47,53890838.99999992
71,5971238.999999999
346,47919599.99999992
993,47871269.999999929
1017,47871269.999999929
1497,6732401.835398108
1533,0.0
1557,0.0
2228,782631.2235013692
2366,1031223.5772815122
4114,24942050.56281423
4126,10490501.918585619
4162,14199365.105798256
4210,25154608.93117116
4236,5701178.258116595
4348,0.0
4473,0.0
2,2, 1, 2, 0, 7, 0.00,60.00,Friday
11,237827199.6808594
47,80349589.75783402
71,5959189.757834133
346,74390399.99999988
993,69320069.9999999
1017,69320069.9999999
1497,774386666.6049199
1533,28597212.921243654
1557,28597212.921243654
2228,718614.7325268167
2366,1029409.7475744938
4114,50839950.15807741
4126,19267989.719830079
4162,14199365.105798256
4210,36052800.26445584
4236,744760043.9361018
4348,0.0
4473,546174.7679654105
2,2, 1, 2, 0, 8, 0.00,60.00,Friday
11,250663329.1227662
47,95003710.09029937
71,20613310.090299503
346,74390399.99999988
993,83139479.99999988
1017,83139479.99999988
1497,496225395.03530409
1533,28882321.086319496
1557,28882321.086319496
2228,2613591.7628982255
2366,1658345.6579610683
4114,38726503.80929072
4126,16519577.605455207
4162,14199365.105798256
4210,30906010.814097838
4236,465684728.2910235
4348,0.0
4473,274032.6461801896
2,2, 1, 2, 0, 9, 0.00,60.00,Friday
11,296469704.6682633
47,122909368.6939622
71,48518968.69396234
346,74390399.99999988
993,112981499.99999987
1017,112981499.99999987
1497,309185992.67404767
1533,285108.16507584266
1557,285108.16507584266
2228,3613223.2908663318
2366,2111163.8056724157
4114,35111048.75110188
4126,16519577.605455207
4162,14199365.105798256
4210,21629571.246519329
4236,306789720.70329937
4348,0.0
4473,224992.68581367745
2,2, 1, 2, 0,10, 0.00,60.00,Friday
11,342144523.55287119
47,146860525.97164545
71,72470125.9716455
346,74390399.99999988
993,143958059.99999995
1017,143958059.99999995
1497,179524491.31347249
1533,285108.16507584266
1557,285108.16507584266
2228,5845536.439681897
2366,2715642.3636581187
4114,32817408.29656811
4126,16589265.49062397
4162,14199365.105798256
4210,12457453.51687079
4236,176523740.7847385
4348,0.0
4473,205539.32810509904
2,2, 1, 2, 0,11, 0.00,60.00,Friday
11,296461420.40485647
47,126280573.37380968
71,73338973.37380971
346,52941599.9999999
993,122509259.99999996
1017,122509259.99999996
1497,103033241.88347113
1533,513194.69713651677
1557,513194.69713651677
2228,7400706.793416748
2366,2779751.1224680638
4114,32233694.739831665
4126,16735360.166592492
4162,14199365.105798256
4210,7838351.092332253
4236,99740296.06386656
4348,0.0
4473,198834.4054662594
2,2, 1, 2, 0,12, 0.00,60.00,Friday
11,294540336.16209909
47,125041061.42821753
71,72099461.42821756
346,52941599.9999999
993,122509259.99999996
1017,122509259.99999996
1497,56522516.801780659
1533,11952079.865633984
1557,11952079.865633984
2228,9968767.35100847
2366,3578707.0887745947
4114,31540844.92728938
4126,17056353.665312359
4162,14199365.105798256
4210,5282153.888158265
4236,40991729.847372088
4348,0.0
4473,198248.5674254295
2,2, 1, 2, 0,13, 0.00,60.00,Friday
11,297717867.74364617
47,127442868.08032233
71,74501268.08032234
346,52941599.9999999
993,122509259.99999996
1017,122509259.99999996
1497,24469168.405812716
1533,11952079.865633984
1557,11952079.865633984
2228,10563109.369834122
2366,4010820.266174663
4114,31840131.72112883
4126,17602557.263506619
4162,14199365.105798256
4210,5163629.1004138099
4236,8506268.274004069
4348,0.0
4473,198869.4719471984
2,2, 1, 2, 0,14, 0.00,60.00,Friday
11,296986644.40284278
47,128151410.69999123
71,75209810.69999124
346,52941599.9999999
993,122509259.99999996
1017,122509259.99999996
1497,7094160.677648211
1533,513194.69713651677
1557,513194.69713651677
2228,10441015.787845303
2366,3935828.5218911606
4114,32266015.215162726
4126,18066111.089662084
4162,14199365.105798256
4210,3419899.6957041409
4236,2645137.4586205335
4348,0.0
4473,199043.00413945996
2,2, 1, 2, 0,15, 0.00,60.00,Friday
11,295661129.61202958
47,128309731.0979111
71,75368131.09791112
346,52941599.9999999
993,122509259.99999996
1017,122509259.99999996
1497,6021887.746158566
1533,427662.2476137639
1557,427662.2476137639
2228,9245277.43512352
2366,3227806.6702075519
4114,32701904.345580289
4126,18502539.23978203
4162,14199365.105798256
4210,2695903.6891167818
4236,2366418.8283372505
4348,0.0
4473,199053.0442979456
2,2, 1, 2, 0,16, 0.00,60.00,Friday
11,291581884.6030799
47,125175201.33699039
71,72233601.3369904
346,52941599.9999999
993,122509259.99999996
1017,122509259.99999996
1497,5233252.302954359
1533,427662.2476137639
1557,427662.2476137639
2228,7691060.305745704
2366,2979725.950702401
4114,33492759.488521965
4126,19293394.38272371
4162,14199365.105798256
4210,2514528.964561451
4236,1825864.1046381952
4348,0.0
4473,199074.50726045148
2,2, 1, 2, 0,17, 0.00,60.00,Friday
11,296786905.38180497
47,130064363.62646272
71,77122763.62646276
346,52941599.9999999
993,122509259.99999996
1017,122509259.99999996
1497,34206929.95587285
1533,29024875.168857416
1557,29024875.168857416
2228,7769196.407187037
2366,3077269.4762316907
4114,33503892.326266949
4126,19304527.220468694
4162,14199365.105798256
4210,2741130.181888682
4236,2104785.310783746
4348,0.0
4473,199062.83999963688
2,2, 1, 2, 0,18, 0.00,60.00,Friday
11,290033748.30298528
47,123776342.99999996
71,70834742.99999997
346,52941599.9999999
993,118102859.99999997
1017,118102859.99999997
1497,34746630.58174909
1533,29024875.168857416
1557,29024875.168857416
2228,8589115.194798254
2366,2962716.573288745
4114,32818182.78686028
4126,18618817.68106202
4162,14199365.105798256
4210,6548211.414961906
4236,2759038.839602928
4348,0.0
4473,199035.90636491538
2,2, 1, 2, 0,19, 0.00,60.00,Friday
11,325505457.1805944
47,143344268.99999986
71,47505068.99999999
346,95839199.99999984
993,135564839.99999989
1017,135564839.99999989
1497,61138681.77042994
1533,28597212.921243654
1557,28597212.921243654
2228,7067451.071228892
2366,2534056.6982998207
4114,31028529.729212215
4126,16829164.623413959
4162,14199365.105798256
4210,8302076.212506683
4236,30007412.15088647
4348,0.0
4473,198291.1676468753
2,2, 1, 2, 0,20, 0.00,60.00,Friday
11,382042641.70961835
47,171942668.99999974
71,47505068.99999999
346,124437599.9999998
993,164163239.99999974
1017,164163239.99999974
1497,48571786.654583808
1533,0.0
1557,0.0
2228,5998861.486536623
2366,2400636.953623989
4114,30860606.839557075
4126,16661241.733758819
4162,14199365.105798256
4210,8879100.825280317
4236,46171149.70095982
4348,0.0
4473,198163.55824464028
2,2, 1, 2, 0,21, 0.00,60.00,Friday
11,395535572.62906679
47,180270629.9999997
71,41533829.999999988
346,138736799.9999998
993,169616699.99999974
1017,169616699.99999974
1497,57336172.26851358
1533,0.0
1557,0.0
2228,5554992.226445711
2366,2099136.4294588558
4114,30773216.08840777
4126,16573850.982609516
4162,14199365.105798256
4210,9121848.598981392
4236,55237035.839054729
4348,0.0
4473,198185.71523226374
2,2, 1, 2, 0,22, 0.00,60.00,Friday
11,314329185.7927538
47,143777915.9999998
71,19340315.999999998
346,124437599.9999998
993,132085079.9999998
1017,132085079.9999998
1497,1806715.3096578089
1533,0.0
1557,0.0
2228,4513515.0381581359
2366,1806715.3096578089
4114,24707217.401348786
4126,10490501.918585619
4162,14199365.105798256
4210,9159638.881916654
4236,0.0
4348,85818.4713305392
4473,0.0
2,2, 1, 2, 0,23, 0.00,60.00,Friday
11,224352363.15012006
47,96788438.99999984
71,5971238.999999999
346,90817199.99999984
993,90768869.99999985
1017,90768869.99999985
1497,1321836.471169233
1533,0.0
1557,0.0
2228,2505088.201395983
2366,1321836.471169233
4114,24689867.024383874
4126,10490501.918585619
4162,14199365.105798256
4210,9600098.924340476
4236,0.0
4348,0.0
4473,0.0
2,2, 1, 2, 0,24, 0.00,60.00,Friday
11,135410242.22316308
47,52754678.99999992
71,4835078.999999999
346,47919599.99999992
993,47320469.999999929
1017,47320469.999999929
1497,1199525.4398836895
1533,0.0
1557,0.0
2228,805093.8467168266
2366,1199525.4398836895
4114,24689867.024383874
4126,10490501.918585619
4162,14199365.105798256
4210,9840132.352062416
4236,0.0
4348,0.0
4473,0.0
2,3, 1, 3, 0, 1, 0.00,60.00,Saturday
11,68004779.3053699
47,24156278.99999996
71,4835078.999999999
346,19321199.999999968
993,18722069.99999997
1017,18722069.99999997
1497,1321125.1951691556
1533,0.0
1557,0.0
2228,2468723.859959563
2366,1321125.1951691556
4114,22657706.445410395
4126,8458341.339612136
4162,14199365.105798256
4210,0.0
4236,0.0
4348,0.0
4473,0.0
2,3, 1, 3, 0, 2, 0.00,60.00,Saturday
11,67169931.95192036
47,24156278.99999996
71,4835078.999999999
346,19321199.999999968
993,18722069.99999997
1017,18722069.99999997
1497,1052037.15308339
1533,0.0
1557,0.0
2228,1633876.5065100287
2366,1052037.15308339
4114,22657706.445410395
4126,8458341.339612136
4162,14199365.105798256
4210,0.0
4236,0.0
4348,0.0
4473,0.0
2,3, 1, 3, 0, 3, 0.00,60.00,Saturday
11,67146338.30883654
47,24156278.99999996
71,4835078.999999999
346,19321199.999999968
993,18722069.99999997
1017,18722069.99999997
1497,1303955.1261245632
1533,0.0
1557,0.0
2228,1610282.8634261904
2366,1303955.1261245632
4114,22657706.445410395
4126,8458341.339612136
4162,14199365.105798256
4210,0.0
4236,0.0
4348,0.0
4473,0.0
2,3, 1, 3, 0, 4, 0.00,60.00,Saturday
11,66329796.12312987
47,24156278.99999996
71,4835078.999999999
346,19321199.999999968
993,18722069.99999997
1017,18722069.99999997
1497,1033903.7571072021
1533,0.0
1557,0.0
2228,793740.6777195315
2366,1033903.7571072021
4114,22657706.445410395
4126,8458341.339612136
4162,14199365.105798256
4210,0.0
4236,0.0
4348,0.0
4473,0.0
2,3, 1, 3, 0, 5, 0.00,60.00,Saturday
11,66329812.99607034
47,24156278.99999996
71,4835078.999999999
346,19321199.999999968
993,18722069.99999997
1017,18722069.99999997
1497,1034052.9602880187
1533,0.0
1557,0.0
2228,793757.5506599948
2366,1034052.9602880187
4114,22657706.445410395
4126,8458341.339612136
4162,14199365.105798256
4210,0.0
4236,0.0
4348,0.0
4473,0.0
2,3, 1, 3, 0, 6, 0.00,60.00,Saturday
11,136944390.60256914
47,52754678.99999992
71,4835078.999999999
346,47919599.99999992
993,47320469.999999929
1017,47320469.999999929
1497,1040079.8459535041
1533,0.0
1557,0.0
2228,1587664.540985528
2366,1040079.8459535041
4114,24689867.024383874
4126,10490501.918585619
4162,14199365.105798256
4210,10591710.037199777
4236,0.0
4348,0.0
4473,0.0
2,3, 1, 3, 0, 7, 0.00,60.00,Saturday
11,196430800.46795655
47,80353887.60673084
71,5963487.6067309579
346,74390399.99999988
993,69320069.9999999
1017,69320069.9999999
1497,334276015.66920247
1533,28597212.921243654
1557,28597212.921243654
2228,799509.0792623777
2366,1303216.276597332
4114,35582932.674772638
4126,16663459.637809318
4162,14199365.105798256
4210,10132786.48185111
4236,304375586.47136148
4348,0.0
4473,241614.62533966534
2,3, 1, 3, 0, 8, 0.00,60.00,Saturday
11,202877427.22171856
47,83575095.01602593
71,9184695.016026047
346,74390399.99999988
993,73192139.99999988
1017,73192139.99999988
1497,241947910.92634125
1533,28597212.921243654
1557,28597212.921243654
2228,3526237.176852978
2366,1669937.3231026494
4114,32113422.889737354
4126,16519577.605455207
4162,14199365.105798256
4210,10260381.902767774
4236,211680760.68199495
4348,0.0
4473,210150.2363346263
2,3, 1, 3, 0, 9, 0.00,60.00,Saturday
11,238338093.90476964
47,101408358.07689302
71,27017958.07689316
346,74390399.99999988
993,90883619.99999987
1017,90883619.99999987
1497,140552492.35701046
1533,285108.16507584266
1557,285108.16507584266
2228,4551528.498914731
2366,1725595.8920716944
4114,31271450.879366906
4126,16519577.605455209
4162,14199365.105798256
4210,10021160.391803353
4236,138541788.29986293
4348,0.0
4473,201976.0577917207
2,3, 1, 3, 0,10, 0.00,60.00,Saturday
11,277204431.1988405
47,118021940.1176323
71,43631540.117632437
346,74390399.99999988
993,114116039.99999988
1017,114116039.99999988
1497,72725040.55946557
1533,285108.16507584266
1557,285108.16507584266
2228,4666506.644988382
2366,2266199.3587038407
4114,30946888.60007936
4126,16564357.849331819
4162,14199365.105798256
4210,9254640.82257471
4236,70173733.03568588
4348,0.0
4473,198415.01356583605
2,3, 1, 3, 0,11, 0.00,60.00,Saturday
11,279615411.6310735
47,116523935.99531035
71,63582335.99531037
346,52941599.9999999
993,115899659.99999997
1017,115899659.99999997
1497,27006084.73296021
1533,513194.69713651677
1557,513194.69713651677
2228,7468541.52668599
2366,2601094.6131785998
4114,31224088.235438087
4126,16814776.49564655
4162,14199365.105798256
4210,7686737.746830475
4236,23891795.42264509
4348,613937.8050408084
4473,198510.3217678749
2,3, 1, 3, 0,12, 0.00,60.00,Saturday
11,283468852.6088649
47,116581494.70240635
71,63639894.70240636
346,52941599.9999999
993,115899659.99999997
1017,115899659.99999997
1497,17242331.451970217
1533,11952079.865633984
1557,11952079.865633984
2228,9639304.809157955
2366,3057324.830883849
4114,32258462.56506153
4126,17666501.529352365
4162,14199365.105798256
4210,5122343.755634042
4236,2232926.755452384
4348,3768528.3826389547
4473,199058.3939661982
2,3, 1, 3, 0,13, 0.00,60.00,Saturday
11,286284517.5241174
47,113147241.18540915
71,60205641.18540916
346,52941599.9999999
993,114247259.99999997
1017,114247259.99999997
1497,17026532.812946679
1533,11952079.865633984
1557,11952079.865633984
2228,10187826.192779514
2366,3277982.1367779418
4114,33568547.61097789
4126,18582971.844396086
4162,14199365.105798256
4210,4765064.483903733
4236,1796470.810534752
4348,10169502.338767386
4473,199075.71227985476
2,3, 1, 3, 0,14, 0.00,60.00,Saturday
11,291196357.6802248
47,113368942.51061702
71,60427342.51061703
346,52941599.9999999
993,114247259.99999997
1017,114247259.99999997
1497,5341346.099392599
1533,513194.69713651677
1557,513194.69713651677
2228,10306505.727549898
2366,3324177.136492067
4114,34941385.591395098
4126,19534773.04180015
4162,14199365.105798256
4210,3933084.3234533967
4236,1503974.265764016
4348,14200092.080661485
4473,199087.4465479924
2,3, 1, 3, 0,15, 0.00,60.00,Saturday
11,293833987.479393
47,113930220.74333327
71,60988620.74333328
346,52941599.9999999
993,114247259.99999997
1017,114247259.99999997
1497,4613875.571506338
1533,427662.2476137639
1557,427662.2476137639
2228,8630365.257901706
2366,2844419.1850480216
4114,36329752.76682265
4126,20512863.933493005
4162,14199365.105798256
4210,3599534.7989143349
4236,1341794.1388445525
4348,16897759.9647037
4473,199093.94771750627
2,3, 1, 3, 0,16, 0.00,60.00,Saturday
11,296862612.2074026
47,112854192.93714825
71,59912592.93714826
346,52941599.9999999
993,114247259.99999997
1017,114247259.99999997
1497,4308640.741898314
1533,427662.2476137639
1557,427662.2476137639
2228,8428832.187123327
2366,2634641.5770388187
4114,37509854.95049071
4126,20980182.035762438
4162,14199365.105798256
4210,2876908.2139929716
4236,1246336.9172457315
4348,20746466.18177282
4473,199097.73687452859
2,3, 1, 3, 0,17, 0.00,60.00,Saturday
11,293177597.0700184
47,117701725.79670084
71,64760125.79670086
346,52941599.9999999
993,114247259.99999997
1017,114247259.99999997
1497,33123494.213535534
1533,29024875.168857416
1557,29024875.168857416
2228,7840049.410496877
2366,2841668.4618635287
4114,36377263.98598007
4126,20976900.132118439
4162,14199365.105798256
4210,3361078.8215521119
4236,1256950.5828145883
4348,13451121.92854371
4473,199097.1267449112
2,3, 1, 3, 0,18, 0.00,60.00,Saturday
11,276672249.8440511
47,111937382.99999996
71,64017782.99999998
346,47919599.99999992
993,113145659.99999997
1017,113145659.99999997
1497,33061023.66814112
1533,28597212.921243654
1557,28597212.921243654
2228,8398634.340136379
2366,2544193.5760125506
4114,34186583.57691646
4126,19895891.838408933
4162,14199365.105798256
4210,5245914.006106318
4236,1919617.1708849187
4348,3559005.5271748777
4473,199069.39371719736
2,3, 1, 3, 0,19, 0.00,60.00,Saturday
11,299931343.71728166
47,128942549.99999987
71,38125349.999999988
346,90817199.99999984
993,125066699.99999988
1017,125066699.99999988
1497,40939213.81767484
1533,28597212.921243654
1557,28597212.921243654
2228,7884453.658149587
2366,2480417.63682046
4114,30851353.103489587
4126,16599109.493809727
4162,14199365.105798256
4210,6724218.894029717
4236,9861583.259610724
4348,263285.6536838673
4473,198782.4079291092
2,3, 1, 3, 0,20, 0.00,60.00,Saturday
11,318162030.72865667
47,142745273.9999998
71,23329673.999999994
346,119415599.9999998
993,138176819.9999998
1017,138176819.9999998
1497,33432131.309650646
1533,0.0
1557,0.0
2228,6226314.595105091
2366,2084826.3185663426
4114,29041846.169734137
4126,14487417.026481722
4162,14199365.105798256
4210,5612.434920994412
4236,31347304.9910843
4348,1767888.4184903366
4473,198275.11040648653
2,3, 1, 3, 0,21, 0.00,60.00,Saturday
11,346383546.7367679
47,157044473.99999977
71,23329673.999999994
346,133714799.99999979
993,152476019.99999977
1017,152476019.99999977
1497,43065418.96850503
1533,0.0
1557,0.0
2228,4742872.505351768
2366,2015882.771252593
4114,29226645.623225813
4126,14487417.026481722
4162,14199365.105798256
4210,7349.526554503167
4236,41049536.19725244
4348,2688018.2257498728
4473,198166.85588617638
2,3, 1, 3, 0,22, 0.00,60.00,Saturday
11,285297879.4503194
47,127949597.9999998
71,8533997.999999999
346,119415599.9999998
993,122688539.9999998
1017,122688539.9999998
1497,106668283.48030228
1533,0.0
1557,0.0