Program Version,EnergyPlus, Version 9.0.1-bb7ca4f0da, YMD=2019.12.17 18:23
1,5,Environment Title[],Latitude[deg],Longitude[deg],Time Zone[],Elevation[m]
2,8,Day of Simulation[],Month[],Day of Month[],DST Indicator[1=yes 0=no],Hour[],StartMinute[],EndMinute[],DayType
3,5,Cumulative Day of Simulation[],Month[],Day of Month[],DST Indicator[1=yes 0=no],DayType  ! When Daily Report Variables Requested
4,2,Cumulative Days of Simulation[],Month[]  ! When Monthly Report Variables Requested
5,1,Cumulative Days of Simulation[] ! When Run Period Report Variables Requested
6,1,Calendar Year of Simulation[] ! When Annual Report Variables Requested
7,1,Environment,Site Outdoor Air Drybulb Temperature [C] !TimeStep
8,1,Environment,Site Outdoor Air Drybulb Temperature [C] !Hourly
End of Data Dictionary
1,PALM-SPRINGS-INTL_722868_CZ2010,  33.83,-116.50,  -8.00, 137.00
2,1, 1, 1, 0, 1, 0.00,15.00,Holiday
7,8.0
2,1, 1, 1, 0, 1,15.00,30.00,Holiday
7,8.0
2,1, 1, 1, 0, 1,30.00,45.00,Holiday
7,8.0
2,1, 1, 1, 0, 1,45.00,60.00,Holiday
7,8.0
2,1, 1, 1, 0, 1, 0.00,60.00,Holiday
8,8.0
2,1, 1, 1, 0, 2, 0.00,15.00,Holiday
7,7.975
2,1, 1, 1, 0, 2,15.00,30.00,Holiday
7,7.95
2,1, 1, 1, 0, 2,30.00,45.00,Holiday
7,7.925000000000001
2,1, 1, 1, 0, 2,45.00,60.00,Holiday
7,7.9
2,1, 1, 1, 0, 2, 0.00,60.00,Holiday
8,7.9375
2,1, 1, 1, 0, 3, 0.00,15.00,Holiday
7,7.65
2,1, 1, 1, 0, 3,15.00,30.00,Holiday
7,7.4
2,1, 1, 1, 0, 3,30.00,45.00,Holiday
7,7.15
2,1, 1, 1, 0, 3,45.00,60.00,Holiday
7,6.9
2,1, 1, 1, 0, 3, 0.00,60.00,Holiday
8,7.275
2,1, 1, 1, 0, 4, 0.00,15.00,Holiday
7,6.65
2,1, 1, 1, 0, 4,15.00,30.00,Holiday
7,6.4
2,1, 1, 1, 0, 4,30.00,45.00,Holiday
7,6.15
2,1, 1, 1, 0, 4,45.00,60.00,Holiday
7,5.9
2,1, 1, 1, 0, 4, 0.00,60.00,Holiday
8,6.275
2,1, 1, 1, 0, 5, 0.00,15.00,Holiday
7,5.65
2,1, 1, 1, 0, 5,15.00,30.00,Holiday
7,5.4
2,1, 1, 1, 0, 5,30.00,45.00,Holiday
7,5.15
2,1, 1, 1, 0, 5,45.00,60.00,Holiday
7,4.9
2,1, 1, 1, 0, 5, 0.00,60.00,Holiday
8,5.275
2,1, 1, 1, 0, 6, 0.00,15.00,Holiday
7,4.7
2,1, 1, 1, 0, 6,15.00,30.00,Holiday
7,4.5
2,1, 1, 1, 0, 6,30.00,45.00,Holiday
7,4.3
2,1, 1, 1, 0, 6,45.00,60.00,Holiday
7,4.1
2,1, 1, 1, 0, 6, 0.00,60.00,Holiday
8,4.4
2,1, 1, 1, 0, 7, 0.00,15.00,Holiday
7,4.35
2,1, 1, 1, 0, 7,15.00,30.00,Holiday
7,4.6
2,1, 1, 1, 0, 7,30.00,45.00,Holiday
7,4.85
2,1, 1, 1, 0, 7,45.00,60.00,Holiday
7,5.1
2,1, 1, 1, 0, 7, 0.00,60.00,Holiday
8,4.725
2,1, 1, 1, 0, 8, 0.00,15.00,Holiday
7,5.324999999999999
2,1, 1, 1, 0, 8,15.00,30.00,Holiday
7,5.55
2,1, 1, 1, 0, 8,30.00,45.00,Holiday
7,5.775
2,1, 1, 1, 0, 8,45.00,60.00,Holiday
7,6.0
2,1, 1, 1, 0, 8, 0.00,60.00,Holiday
8,5.6625
2,1, 1, 1, 0, 9, 0.00,15.00,Holiday
7,6.05
2,1, 1, 1, 0, 9,15.00,30.00,Holiday
7,6.1
2,1, 1, 1, 0, 9,30.00,45.00,Holiday
7,6.15
2,1, 1, 1, 0, 9,45.00,60.00,Holiday
7,6.2
2,1, 1, 1, 0, 9, 0.00,60.00,Holiday
8,6.124999999999999
2,1, 1, 1, 0,10, 0.00,15.00,Holiday
7,6.75
2,1, 1, 1, 0,10,15.00,30.00,Holiday
7,7.300000000000001
2,1, 1, 1, 0,10,30.00,45.00,Holiday
7,7.8500000000000009
2,1, 1, 1, 0,10,45.00,60.00,Holiday
7,8.4
2,1, 1, 1, 0,10, 0.00,60.00,Holiday
8,7.575000000000001
2,1, 1, 1, 0,11, 0.00,15.00,Holiday
7,9.075000000000001
2,1, 1, 1, 0,11,15.00,30.00,Holiday
7,9.75
2,1, 1, 1, 0,11,30.00,45.00,Holiday
7,10.424999999999999
2,1, 1, 1, 0,11,45.00,60.00,Holiday
7,11.1
2,1, 1, 1, 0,11, 0.00,60.00,Holiday
8,10.0875
2,1, 1, 1, 0,12, 0.00,15.00,Holiday
7,11.325
2,1, 1, 1, 0,12,15.00,30.00,Holiday
7,11.55
2,1, 1, 1, 0,12,30.00,45.00,Holiday
7,11.775
2,1, 1, 1, 0,12,45.00,60.00,Holiday
7,12.0
2,1, 1, 1, 0,12, 0.00,60.00,Holiday
8,11.6625
2,1, 1, 1, 0,13, 0.00,15.00,Holiday
7,12.0
2,1, 1, 1, 0,13,15.00,30.00,Holiday
7,12.0
2,1, 1, 1, 0,13,30.00,45.00,Holiday
7,12.0
2,1, 1, 1, 0,13,45.00,60.00,Holiday
7,12.0
2,1, 1, 1, 0,13, 0.00,60.00,Holiday
8,12.0
2,1, 1, 1, 0,14, 0.00,15.00,Holiday
7,12.025
2,1, 1, 1, 0,14,15.00,30.00,Holiday
7,12.05
2,1, 1, 1, 0,14,30.00,45.00,Holiday
7,12.075
2,1, 1, 1, 0,14,45.00,60.00,Holiday
7,12.1
2,1, 1, 1, 0,14, 0.00,60.00,Holiday
8,12.062500000000002
2,1, 1, 1, 0,15, 0.00,15.00,Holiday
7,12.325
2,1, 1, 1, 0,15,15.00,30.00,Holiday
7,12.55
2,1, 1, 1, 0,15,30.00,45.00,Holiday
7,12.775
2,1, 1, 1, 0,15,45.00,60.00,Holiday
7,13.0
2,1, 1, 1, 0,15, 0.00,60.00,Holiday
8,12.6625
2,1, 1, 1, 0,16, 0.00,15.00,Holiday
7,13.0
2,1, 1, 1, 0,16,15.00,30.00,Holiday
7,13.0
2,1, 1, 1, 0,16,30.00,45.00,Holiday
7,13.0
2,1, 1, 1, 0,16,45.00,60.00,Holiday
7,13.0
2,1, 1, 1, 0,16, 0.00,60.00,Holiday
8,13.0
2,1, 1, 1, 0,17, 0.00,15.00,Holiday
7,12.975
2,1, 1, 1, 0,17,15.00,30.00,Holiday
7,12.95
2,1, 1, 1, 0,17,30.00,45.00,Holiday
7,12.925
2,1, 1, 1, 0,17,45.00,60.00,Holiday
7,12.9
2,1, 1, 1, 0,17, 0.00,60.00,Holiday
8,12.937499999999999
2,1, 1, 1, 0,18, 0.00,15.00,Holiday
7,12.775
2,1, 1, 1, 0,18,15.00,30.00,Holiday
7,12.65
2,1, 1, 1, 0,18,30.00,45.00,Holiday
7,12.525
2,1, 1, 1, 0,18,45.00,60.00,Holiday
7,12.4
2,1, 1, 1, 0,18, 0.00,60.00,Holiday
8,12.5875
2,1, 1, 1, 0,19, 0.00,15.00,Holiday
7,12.275
2,1, 1, 1, 0,19,15.00,30.00,Holiday
7,12.15
2,1, 1, 1, 0,19,30.00,45.00,Holiday
7,12.025
2,1, 1, 1, 0,19,45.00,60.00,Holiday
7,11.9
2,1, 1, 1, 0,19, 0.00,60.00,Holiday
8,12.0875
2,1, 1, 1, 0,20, 0.00,15.00,Holiday
7,11.625
2,1, 1, 1, 0,20,15.00,30.00,Holiday
7,11.350000000000002
2,1, 1, 1, 0,20,30.00,45.00,Holiday
7,11.075000000000001
2,1, 1, 1, 0,20,45.00,60.00,Holiday
7,10.8
2,1, 1, 1, 0,20, 0.00,60.00,Holiday
8,11.212500000000003
2,1, 1, 1, 0,21, 0.00,15.00,Holiday
7,10.350000000000002
2,1, 1, 1, 0,21,15.00,30.00,Holiday
7,9.9
2,1, 1, 1, 0,21,30.00,45.00,Holiday
7,9.45
2,1, 1, 1, 0,21,45.00,60.00,Holiday
7,9.0
2,1, 1, 1, 0,21, 0.00,60.00,Holiday
8,9.675
2,1, 1, 1, 0,22, 0.00,15.00,Holiday
7,9.0
2,1, 1, 1, 0,22,15.00,30.00,Holiday
7,9.0
2,1, 1, 1, 0,22,30.00,45.00,Holiday
7,9.0
2,1, 1, 1, 0,22,45.00,60.00,Holiday
7,9.0
2,1, 1, 1, 0,22, 0.00,60.00,Holiday
8,9.0
2,1, 1, 1, 0,23, 0.00,15.00,Holiday
7,8.975
2,1, 1, 1, 0,23,15.00,30.00,Holiday
7,8.95
2,1, 1, 1, 0,23,30.00,45.00,Holiday
7,8.925
2,1, 1, 1, 0,23,45.00,60.00,Holiday
7,8.9
2,1, 1, 1, 0,23, 0.00,60.00,Holiday
8,8.9375
2,1, 1, 1, 0,24, 0.00,15.00,Holiday
7,8.675
2,1, 1, 1, 0,24,15.00,30.00,Holiday
7,8.45
2,1, 1, 1, 0,24,30.00,45.00,Holiday
7,8.225
2,1, 1, 1, 0,24,45.00,60.00,Holiday
7,8.0
2,1, 1, 1, 0,24, 0.00,60.00,Holiday
8,8.3375
2,2, 1, 2, 0, 1, 0.00,15.00,Friday
7,8.0
2,2, 1, 2, 0, 1,15.00,30.00,Friday
7,8.0
2,2, 1, 2, 0, 1,30.00,45.00,Friday
7,8.0
2,2, 1, 2, 0, 1,45.00,60.00,Friday
7,8.0
2,2, 1, 2, 0, 1, 0.00,60.00,Friday
8,8.0
2,2, 1, 2, 0, 2, 0.00,15.00,Friday
7,7.95
2,2, 1, 2, 0, 2,15.00,30.00,Friday
7,7.9
2,2, 1, 2, 0, 2,30.00,45.00,Friday
7,7.85
2,2, 1, 2, 0, 2,45.00,60.00,Friday
7,7.8
2,2, 1, 2, 0, 2, 0.00,60.00,Friday
8,7.875000000000001
2,2, 1, 2, 0, 3, 0.00,15.00,Friday
7,7.35
2,2, 1, 2, 0, 3,15.00,30.00,Friday
7,6.9
2,2, 1, 2, 0, 3,30.00,45.00,Friday
7,6.45
2,2, 1, 2, 0, 3,45.00,60.00,Friday
7,6.0
2,2, 1, 2, 0, 3, 0.00,60.00,Friday
8,6.675
2,2, 1, 2, 0, 4, 0.00,15.00,Friday
7,6.0
2,2, 1, 2, 0, 4,15.00,30.00,Friday
7,6.0
2,2, 1, 2, 0, 4,30.00,45.00,Friday
7,6.0
2,2, 1, 2, 0, 4,45.00,60.00,Friday
7,6.0
2,2, 1, 2, 0, 4, 0.00,60.00,Friday
8,6.0
2,2, 1, 2, 0, 5, 0.00,15.00,Friday
7,5.975
2,2, 1, 2, 0, 5,15.00,30.00,Friday
7,5.95
2,2, 1, 2, 0, 5,30.00,45.00,Friday
7,5.925000000000001
2,2, 1, 2, 0, 5,45.00,60.00,Friday
7,5.9
2,2, 1, 2, 0, 5, 0.00,60.00,Friday
8,5.9375
2,2, 1, 2, 0, 6, 0.00,15.00,Friday
7,5.65
2,2, 1, 2, 0, 6,15.00,30.00,Friday
7,5.4
2,2, 1, 2, 0, 6,30.00,45.00,Friday
7,5.15
2,2, 1, 2, 0, 6,45.00,60.00,Friday
7,4.9
2,2, 1, 2, 0, 6, 0.00,60.00,Friday
8,5.275
2,2, 1, 2, 0, 7, 0.00,15.00,Friday
7,4.7
2,2, 1, 2, 0, 7,15.00,30.00,Friday
7,4.5
2,2, 1, 2, 0, 7,30.00,45.00,Friday
7,4.3
2,2, 1, 2, 0, 7,45.00,60.00,Friday
7,4.1
2,2, 1, 2, 0, 7, 0.00,60.00,Friday
8,4.4
2,2, 1, 2, 0, 8, 0.00,15.00,Friday
7,4.35
2,2, 1, 2, 0, 8,15.00,30.00,Friday
7,4.6
2,2, 1, 2, 0, 8,30.00,45.00,Friday
7,4.85
2,2, 1, 2, 0, 8,45.00,60.00,Friday
7,5.1
2,2, 1, 2, 0, 8, 0.00,60.00,Friday
8,4.725
2,2, 1, 2, 0, 9, 0.00,15.00,Friday
7,5.425
2,2, 1, 2, 0, 9,15.00,30.00,Friday
7,5.75
2,2, 1, 2, 0, 9,30.00,45.00,Friday
7,6.075000000000001
2,2, 1, 2, 0, 9,45.00,60.00,Friday
7,6.4
2,2, 1, 2, 0, 9, 0.00,60.00,Friday
8,5.9125
2,2, 1, 2, 0,10, 0.00,15.00,Friday
7,7.15
2,2, 1, 2, 0,10,15.00,30.00,Friday
7,7.9
2,2, 1, 2, 0,10,30.00,45.00,Friday
7,8.65
2,2, 1, 2, 0,10,45.00,60.00,Friday
7,9.4
2,2, 1, 2, 0,10, 0.00,60.00,Friday
8,8.275
2,2, 1, 2, 0,11, 0.00,15.00,Friday
7,10.075000000000001
2,2, 1, 2, 0,11,15.00,30.00,Friday
7,10.75
2,2, 1, 2, 0,11,30.00,45.00,Friday
7,11.424999999999999
2,2, 1, 2, 0,11,45.00,60.00,Friday
7,12.1
2,2, 1, 2, 0,11, 0.00,60.00,Friday
8,11.0875
2,2, 1, 2, 0,12, 0.00,15.00,Friday
7,12.35
2,2, 1, 2, 0,12,15.00,30.00,Friday
7,12.6
2,2, 1, 2, 0,12,30.00,45.00,Friday
7,12.85
2,2, 1, 2, 0,12,45.00,60.00,Friday
7,13.1
2,2, 1, 2, 0,12, 0.00,60.00,Friday
8,12.725
2,2, 1, 2, 0,13, 0.00,15.00,Friday
7,13.325
2,2, 1, 2, 0,13,15.00,30.00,Friday
7,13.55
2,2, 1, 2, 0,13,30.00,45.00,Friday
7,13.775
2,2, 1, 2, 0,13,45.00,60.00,Friday
7,14.0
2,2, 1, 2, 0,13, 0.00,60.00,Friday
8,13.6625
2,2, 1, 2, 0,14, 0.00,15.00,Friday
7,14.025
2,2, 1, 2, 0,14,15.00,30.00,Friday
7,14.05
2,2, 1, 2, 0,14,30.00,45.00,Friday
7,14.075
2,2, 1, 2, 0,14,45.00,60.00,Friday
7,14.1
2,2, 1, 2, 0,14, 0.00,60.00,Friday
8,14.062500000000002
2,2, 1, 2, 0,15, 0.00,15.00,Friday
7,14.299999999999999
2,2, 1, 2, 0,15,15.00,30.00,Friday
7,14.5
2,2, 1, 2, 0,15,30.00,45.00,Friday
7,14.700000000000001
2,2, 1, 2, 0,15,45.00,60.00,Friday
7,14.9
2,2, 1, 2, 0,15, 0.00,60.00,Friday
8,14.6
2,2, 1, 2, 0,16, 0.00,15.00,Friday
7,14.675
2,2, 1, 2, 0,16,15.00,30.00,Friday
7,14.45
2,2, 1, 2, 0,16,30.00,45.00,Friday
7,14.225
2,2, 1, 2, 0,16,45.00,60.00,Friday
7,14.0
2,2, 1, 2, 0,16, 0.00,60.00,Friday
8,14.3375
2,2, 1, 2, 0,17, 0.00,15.00,Friday
7,13.975
2,2, 1, 2, 0,17,15.00,30.00,Friday
7,13.95
2,2, 1, 2, 0,17,30.00,45.00,Friday
7,13.925
2,2, 1, 2, 0,17,45.00,60.00,Friday
7,13.9
2,2, 1, 2, 0,17, 0.00,60.00,Friday
8,13.937499999999999
2,2, 1, 2, 0,18, 0.00,15.00,Friday
7,13.775
2,2, 1, 2, 0,18,15.00,30.00,Friday
7,13.65
2,2, 1, 2, 0,18,30.00,45.00,Friday
7,13.525
2,2, 1, 2, 0,18,45.00,60.00,Friday
7,13.4
2,2, 1, 2, 0,18, 0.00,60.00,Friday
8,13.5875
2,2, 1, 2, 0,19, 0.00,15.00,Friday
7,13.275
2,2, 1, 2, 0,19,15.00,30.00,Friday
7,13.15
2,2, 1, 2, 0,19,30.00,45.00,Friday
7,13.025
2,2, 1, 2, 0,19,45.00,60.00,Friday
7,12.9
2,2, 1, 2, 0,19, 0.00,60.00,Friday
8,13.0875
2,2, 1, 2, 0,20, 0.00,15.00,Friday
7,12.675
2,2, 1, 2, 0,20,15.00,30.00,Friday
7,12.45
2,2, 1, 2, 0,20,30.00,45.00,Friday
7,12.225
2,2, 1, 2, 0,20,45.00,60.00,Friday
7,12.0
2,2, 1, 2, 0,20, 0.00,60.00,Friday
8,12.3375
2,2, 1, 2, 0,21, 0.00,15.00,Friday
7,12.0
2,2, 1, 2, 0,21,15.00,30.00,Friday
7,12.0
2,2, 1, 2, 0,21,30.00,45.00,Friday
7,12.0
2,2, 1, 2, 0,21,45.00,60.00,Friday
7,12.0
2,2, 1, 2, 0,21, 0.00,60.00,Friday
8,12.0
2,2, 1, 2, 0,22, 0.00,15.00,Friday
7,11.975
2,2, 1, 2, 0,22,15.00,30.00,Friday
7,11.95
2,2, 1, 2, 0,22,30.00,45.00,Friday
7,11.925
2,2, 1, 2, 0,22,45.00,60.00,Friday
7,11.9
2,2, 1, 2, 0,22, 0.00,60.00,Friday
8,11.937499999999999
2,2, 1, 2, 0,23, 0.00,15.00,Friday
7,11.675
2,2, 1, 2, 0,23,15.00,30.00,Friday
7,11.45
2,2, 1, 2, 0,23,30.00,45.00,Friday
7,11.225
2,2, 1, 2, 0,23,45.00,60.00,Friday
7,11.0
2,2, 1, 2, 0,23, 0.00,60.00,Friday
8,11.3375
2,2, 1, 2, 0,24, 0.00,15.00,Friday
7,11.0
2,2, 1, 2, 0,24,15.00,30.00,Friday
7,11.0
2,2, 1, 2, 0,24,30.00,45.00,Friday
7,11.0
2,2, 1, 2, 0,24,45.00,60.00,Friday
7,11.0
2,2, 1, 2, 0,24, 0.00,60.00,Friday
8,11.0
2,3, 1, 3, 0, 1, 0.00,15.00,Saturday
7,10.975
2,3, 1, 3, 0, 1,15.00,30.00,Saturday
7,10.95
2,3, 1, 3, 0, 1,30.00,45.00,Saturday
7,10.925
2,3, 1, 3, 0, 1,45.00,60.00,Saturday
7,10.9
2,3, 1, 3, 0, 1, 0.00,60.00,Saturday
8,10.937499999999999
2,3, 1, 3, 0, 2, 0.00,15.00,Saturday
7,10.675
2,3, 1, 3, 0, 2,15.00,30.00,Saturday
7,10.45
2,3, 1, 3, 0, 2,30.00,45.00,Saturday
7,10.225
2,3, 1, 3, 0, 2,45.00,60.00,Saturday
7,10.0
2,3, 1, 3, 0, 2, 0.00,60.00,Saturday
8,10.3375
2,3, 1, 3, 0, 3, 0.00,15.00,Saturday
7,10.025
2,3, 1, 3, 0, 3,15.00,30.00,Saturday
7,10.05
2,3, 1, 3, 0, 3,30.00,45.00,Saturday
7,10.075
2,3, 1, 3, 0, 3,45.00,60.00,Saturday
7,10.1
2,3, 1, 3, 0, 3, 0.00,60.00,Saturday
8,10.0625
2,3, 1, 3, 0, 4, 0.00,15.00,Saturday
7,10.299999999999999
2,3, 1, 3, 0, 4,15.00,30.00,Saturday
7,10.5
2,3, 1, 3, 0, 4,30.00,45.00,Saturday
7,10.700000000000001
2,3, 1, 3, 0, 4,45.00,60.00,Saturday
7,10.9
2,3, 1, 3, 0, 4, 0.00,60.00,Saturday
8,10.6
2,3, 1, 3, 0, 5, 0.00,15.00,Saturday
7,10.675
2,3, 1, 3, 0, 5,15.00,30.00,Saturday
7,10.45
2,3, 1, 3, 0, 5,30.00,45.00,Saturday
7,10.225
2,3, 1, 3, 0, 5,45.00,60.00,Saturday
7,10.0
2,3, 1, 3, 0, 5, 0.00,60.00,Saturday
8,10.3375
2,3, 1, 3, 0, 6, 0.00,15.00,Saturday
7,10.025
2,3, 1, 3, 0, 6,15.00,30.00,Saturday
7,10.05
2,3, 1, 3, 0, 6,30.00,45.00,Saturday
7,10.075
2,3, 1, 3, 0, 6,45.00,60.00,Saturday
7,10.1
2,3, 1, 3, 0, 6, 0.00,60.00,Saturday
8,10.0625
2,3, 1, 3, 0, 7, 0.00,15.00,Saturday
7,10.299999999999999
2,3, 1, 3, 0, 7,15.00,30.00,Saturday
7,10.5
2,3, 1, 3, 0, 7,30.00,45.00,Saturday
7,10.700000000000001
2,3, 1, 3, 0, 7,45.00,60.00,Saturday
7,10.9
2,3, 1, 3, 0, 7, 0.00,60.00,Saturday
8,10.6
2,3, 1, 3, 0, 8, 0.00,15.00,Saturday
7,10.700000000000001
2,3, 1, 3, 0, 8,15.00,30.00,Saturday
7,10.5
2,3, 1, 3, 0, 8,30.00,45.00,Saturday
7,10.299999999999999
2,3, 1, 3, 0, 8,45.00,60.00,Saturday
7,10.1
2,3, 1, 3, 0, 8, 0.00,60.00,Saturday
8,10.4
2,3, 1, 3, 0, 9, 0.00,15.00,Saturday
7,10.35
2,3, 1, 3, 0, 9,15.00,30.00,Saturday
7,10.6
2,3, 1, 3, 0, 9,30.00,45.00,Saturday
7,10.85
2,3, 1, 3, 0, 9,45.00,60.00,Saturday
7,11.1
2,3, 1, 3, 0, 9, 0.00,60.00,Saturday
8,10.725
2,3, 1, 3, 0,10, 0.00,15.00,Saturday
7,11.375
2,3, 1, 3, 0,10,15.00,30.00,Saturday
7,11.649999999999999
2,3, 1, 3, 0,10,30.00,45.00,Saturday
7,11.924999999999999
2,3, 1, 3, 0,10,45.00,60.00,Saturday
7,12.2
2,3, 1, 3, 0,10, 0.00,60.00,Saturday
8,11.787499999999998
2,3, 1, 3, 0,11, 0.00,15.00,Saturday
7,12.774999999999999
2,3, 1, 3, 0,11,15.00,30.00,Saturday
7,13.35
2,3, 1, 3, 0,11,30.00,45.00,Saturday
7,13.925
2,3, 1, 3, 0,11,45.00,60.00,Saturday
7,14.5
2,3, 1, 3, 0,11, 0.00,60.00,Saturday
8,13.6375
2,3, 1, 3, 0,12, 0.00,15.00,Saturday
7,14.9
2,3, 1, 3, 0,12,15.00,30.00,Saturday
7,15.3
2,3, 1, 3, 0,12,30.00,45.00,Saturday
7,15.700000000000001
2,3, 1, 3, 0,12,45.00,60.00,Saturday
7,16.1
2,3, 1, 3, 0,12, 0.00,60.00,Saturday
8,15.500000000000002
2,3, 1, 3, 0,13, 0.00,15.00,Saturday
7,16.325000000000004
2,3, 1, 3, 0,13,15.00,30.00,Saturday
7,16.55
2,3, 1, 3, 0,13,30.00,45.00,Saturday
7,16.775
2,3, 1, 3, 0,13,45.00,60.00,Saturday
7,17.0
2,3, 1, 3, 0,13, 0.00,60.00,Saturday
8,16.6625
2,3, 1, 3, 0,14, 0.00,15.00,Saturday
7,17.0
2,3, 1, 3, 0,14,15.00,30.00,Saturday
7,17.0
2,3, 1, 3, 0,14,30.00,45.00,Saturday
7,17.0
2,3, 1, 3, 0,14,45.00,60.00,Saturday
7,17.0
2,3, 1, 3, 0,14, 0.00,60.00,Saturday
8,17.0
2,3, 1, 3, 0,15, 0.00,15.00,Saturday
7,17.0
2,3, 1, 3, 0,15,15.00,30.00,Saturday
7,17.0
2,3, 1, 3, 0,15,30.00,45.00,Saturday
7,17.0
2,3, 1, 3, 0,15,45.00,60.00,Saturday
7,17.0
2,3, 1, 3, 0,15, 0.00,60.00,Saturday
8,17.0
2,3, 1, 3, 0,16, 0.00,15.00,Saturday
7,17.0
2,3, 1, 3, 0,16,15.00,30.00,Saturday
7,17.0
2,3, 1, 3, 0,16,30.00,45.00,Saturday
7,17.0
2,3, 1, 3, 0,16,45.00,60.00,Saturday
7,17.0
2,3, 1, 3, 0,16, 0.00,60.00,Saturday
8,17.0
2,3, 1, 3, 0,17, 0.00,15.00,Saturday
7,16.85
2,3, 1, 3, 0,17,15.00,30.00,Saturday
7,16.7
2,3, 1, 3, 0,17,30.00,45.00,Saturday
7,16.549999999999998
2,3, 1, 3, 0,17,45.00,60.00,Saturday
7,16.4
2,3, 1, 3, 0,17, 0.00,60.00,Saturday
8,16.625
2,3, 1, 3, 0,18, 0.00,15.00,Saturday
7,16.125
2,3, 1, 3, 0,18,15.00,30.00,Saturday
7,15.85
2,3, 1, 3, 0,18,30.00,45.00,Saturday
7,15.575000000000001
2,3, 1, 3, 0,18,45.00,60.00,Saturday
7,15.3
2,3, 1, 3, 0,18, 0.00,60.00,Saturday
8,15.712500000000003
2,3, 1, 3, 0,19, 0.00,15.00,Saturday
7,14.950000000000001
2,3, 1, 3, 0,19,15.00,30.00,Saturday
7,14.600000000000002
2,3, 1, 3, 0,19,30.00,45.00,Saturday
7,14.25
2,3, 1, 3, 0,19,45.00,60.00,Saturday
7,13.9
2,3, 1, 3, 0,19, 0.00,60.00,Saturday
8,14.425
2,3, 1, 3, 0,20, 0.00,15.00,Saturday
7,13.675
2,3, 1, 3, 0,20,15.00,30.00,Saturday
7,13.45
2,3, 1, 3, 0,20,30.00,45.00,Saturday
7,13.225
2,3, 1, 3, 0,20,45.00,60.00,Saturday
7,13.0
2,3, 1, 3, 0,20, 0.00,60.00,Saturday
8,13.3375
2,3, 1, 3, 0,21, 0.00,15.00,Saturday
7,12.95
2,3, 1, 3, 0,21,15.00,30.00,Saturday
7,12.9
2,3, 1, 3, 0,21,30.00,45.00,Saturday
7,12.850000000000002
2,3, 1, 3, 0,21,45.00,60.00,Saturday
7,12.8
2,3, 1, 3, 0,21, 0.00,60.00,Saturday
8,12.875
2,3, 1, 3, 0,22, 0.00,15.00,Saturday
7,12.325000000000001
2,3, 1, 3, 0,22,15.00,30.00,Saturday
7,11.850000000000002
2,3, 1, 3, 0,22,30.00,45.00,Saturday
7,11.375
2,3, 1, 3, 0,22,45.00,60.00,Saturday
7,10.9
2,3, 1, 3, 0,22, 0.00,60.00,Saturday
8,11.6125
2,3, 1, 3, 0,23, 0.00,15.00,Saturday
7,10.65
2,3, 1, 3, 0,23,15.00,30.00,Saturday
7,10.4
2,3, 1, 3, 0,23,30.00,45.00,Saturday
7,10.15
2,3, 1, 3, 0,23,45.00,60.00,Saturday
7,9.9
2,3, 1, 3, 0,23, 0.00,60.00,Saturday
8,10.275
2,3, 1, 3, 0,24, 0.00,15.00,Saturday
7,9.65
2,3, 1, 3, 0,24,15.00,30.00,Saturday
7,9.4
2,3, 1, 3, 0,24,30.00,45.00,Saturday
7,9.15
2,3, 1, 3, 0,24,45.00,60.00,Saturday
7,8.9
2,3, 1, 3, 0,24, 0.00,60.00,Saturday
8,9.275
2,4, 1, 4, 0, 1, 0.00,15.00,Sunday
7,8.700000000000001
2,4, 1, 4, 0, 1,15.00,30.00,Sunday
7,8.5
2,4, 1, 4, 0, 1,30.00,45.00,Sunday
7,8.299999999999999
2,4, 1, 4, 0, 1,45.00,60.00,Sunday
7,8.1
2,4, 1, 4, 0, 1, 0.00,60.00,Sunday
8,8.4
2,4, 1, 4, 0, 2, 0.00,15.00,Sunday
7,8.299999999999999
2,4, 1, 4, 0, 2,15.00,30.00,Sunday
7,8.5
2,4, 1, 4, 0, 2,30.00,45.00,Sunday
7,8.700000000000001
2,4, 1, 4, 0, 2,45.00,60.00,Sunday
7,8.9
2,4, 1, 4, 0, 2, 0.00,60.00,Sunday
8,8.6
2,4, 1, 4, 0, 3, 0.00,15.00,Sunday
7,8.675
2,4, 1, 4, 0, 3,15.00,30.00,Sunday
7,8.45
2,4, 1, 4, 0, 3,30.00,45.00,Sunday
7,8.225
2,4, 1, 4, 0, 3,45.00,60.00,Sunday
7,8.0
2,4, 1, 4, 0, 3, 0.00,60.00,Sunday
8,8.3375
2,4, 1, 4, 0, 4, 0.00,15.00,Sunday
7,8.0
2,4, 1, 4, 0, 4,15.00,30.00,Sunday
7,8.0
2,4, 1, 4, 0, 4,30.00,45.00,Sunday
7,8.0
2,4, 1, 4, 0, 4,45.00,60.00,Sunday
7,8.0
2,4, 1, 4, 0, 4, 0.00,60.00,Sunday
8,8.0
2,4, 1, 4, 0, 5, 0.00,15.00,Sunday
7,8.0
2,4, 1, 4, 0, 5,15.00,30.00,Sunday
7,8.0
2,4, 1, 4, 0, 5,30.00,45.00,Sunday
7,8.0
2,4, 1, 4, 0, 5,45.00,60.00,Sunday
7,8.0
2,4, 1, 4, 0, 5, 0.00,60.00,Sunday
8,8.0
2,4, 1, 4, 0, 6, 0.00,15.00,Sunday
7,7.975
2,4, 1, 4, 0, 6,15.00,30.00,Sunday
7,7.95
2,4, 1, 4, 0, 6,30.00,45.00,Sunday
7,7.925000000000001
2,4, 1, 4, 0, 6,45.00,60.00,Sunday
7,7.9
2,4, 1, 4, 0, 6, 0.00,60.00,Sunday
8,7.9375
2,4, 1, 4, 0, 7, 0.00,15.00,Sunday
7,7.65
2,4, 1, 4, 0, 7,15.00,30.00,Sunday
7,7.4
2,4, 1, 4, 0, 7,30.00,45.00,Sunday
7,7.15
2,4, 1, 4, 0, 7,45.00,60.00,Sunday
7,6.9
2,4, 1, 4, 0, 7, 0.00,60.00,Sunday
8,7.275
2,4, 1, 4, 0, 8, 0.00,15.00,Sunday
7,6.700000000000001
2,4, 1, 4, 0, 8,15.00,30.00,Sunday
7,6.5
2,4, 1, 4, 0, 8,30.00,45.00,Sunday
7,6.299999999999999
2,4, 1, 4, 0, 8,45.00,60.00,Sunday
7,6.1
2,4, 1, 4, 0, 8, 0.00,60.00,Sunday
8,6.4
2,4, 1, 4, 0, 9, 0.00,15.00,Sunday
7,6.3999999999999999
2,4, 1, 4, 0, 9,15.00,30.00,Sunday
7,6.699999999999999
2,4, 1, 4, 0, 9,30.00,45.00,Sunday
7,7.0
2,4, 1, 4, 0, 9,45.00,60.00,Sunday
7,7.3
2,4, 1, 4, 0, 9, 0.00,60.00,Sunday
8,6.85
2,4, 1, 4, 0,10, 0.00,15.00,Sunday
7,8.024999999999999
2,4, 1, 4, 0,10,15.00,30.00,Sunday
7,8.75
2,4, 1, 4, 0,10,30.00,45.00,Sunday
7,9.475
2,4, 1, 4, 0,10,45.00,60.00,Sunday
7,10.2
2,4, 1, 4, 0,10, 0.00,60.00,Sunday
8,9.1125
2,4, 1, 4, 0,11, 0.00,15.00,Sunday
7,10.674999999999999
2,4, 1, 4, 0,11,15.00,30.00,Sunday
7,11.149999999999999
2,4, 1, 4, 0,11,30.00,45.00,Sunday
7,11.625
2,4, 1, 4, 0,11,45.00,60.00,Sunday
7,12.1
2,4, 1, 4, 0,11, 0.00,60.00,Sunday
8,11.3875
2,4, 1, 4, 0,12, 0.00,15.00,Sunday
7,12.325
2,4, 1, 4, 0,12,15.00,30.00,Sunday
7,12.55
2,4, 1, 4, 0,12,30.00,45.00,Sunday
7,12.775
2,4, 1, 4, 0,12,45.00,60.00,Sunday
7,13.0
2,4, 1, 4, 0,12, 0.00,60.00,Sunday
8,12.6625
2,4, 1, 4, 0,13, 0.00,15.00,Sunday
7,13.025
2,4, 1, 4, 0,13,15.00,30.00,Sunday
7,13.05
2,4, 1, 4, 0,13,30.00,45.00,Sunday
7,13.075
2,4, 1, 4, 0,13,45.00,60.00,Sunday
7,13.1
2,4, 1, 4, 0,13, 0.00,60.00,Sunday
8,13.062500000000002
2,4, 1, 4, 0,14, 0.00,15.00,Sunday
7,13.325
2,4, 1, 4, 0,14,15.00,30.00,Sunday
7,13.55
2,4, 1, 4, 0,14,30.00,45.00,Sunday
7,13.775
2,4, 1, 4, 0,14,45.00,60.00,Sunday
7,14.0
2,4, 1, 4, 0,14, 0.00,60.00,Sunday
8,13.6625
2,4, 1, 4, 0,15, 0.00,15.00,Sunday
7,14.0
2,4, 1, 4, 0,15,15.00,30.00,Sunday
7,14.0
2,4, 1, 4, 0,15,30.00,45.00,Sunday
7,14.0
2,4, 1, 4, 0,15,45.00,60.00,Sunday
7,14.0
2,4, 1, 4, 0,15, 0.00,60.00,Sunday
8,14.0
2,4, 1, 4, 0,16, 0.00,15.00,Sunday
7,14.0
2,4, 1, 4, 0,16,15.00,30.00,Sunday
7,14.0
2,4, 1, 4, 0,16,30.00,45.00,Sunday
7,14.0
2,4, 1, 4, 0,16,45.00,60.00,Sunday
7,14.0
2,4, 1, 4, 0,16, 0.00,60.00,Sunday
8,14.0
2,4, 1, 4, 0,17, 0.00,15.00,Sunday
7,13.975
2,4, 1, 4, 0,17,15.00,30.00,Sunday
7,13.95
2,4, 1, 4, 0,17,30.00,45.00,Sunday
7,13.925
2,4, 1, 4, 0,17,45.00,60.00,Sunday
7,13.9
2,4, 1, 4, 0,17, 0.00,60.00,Sunday
8,13.937499999999999
2,4, 1, 4, 0,18, 0.00,15.00,Sunday
7,13.65
2,4, 1, 4, 0,18,15.00,30.00,Sunday
7,13.4
2,4, 1, 4, 0,18,30.00,45.00,Sunday
7,13.15
2,4, 1, 4, 0,18,45.00,60.00,Sunday
7,12.9
2,4, 1, 4, 0,18, 0.00,60.00,Sunday
8,13.275
2,4, 1, 4, 0,19, 0.00,15.00,Sunday
7,12.600000000000002
2,4, 1, 4, 0,19,15.00,30.00,Sunday
7,12.3
2,4, 1, 4, 0,19,30.00,45.00,Sunday
7,11.999999999999999
2,4, 1, 4, 0,19,45.00,60.00,Sunday
7,11.7
2,4, 1, 4, 0,19, 0.00,60.00,Sunday
8,12.149999999999999
2,4, 1, 4, 0,20, 0.00,15.00,Sunday
7,11.024999999999999
2,4, 1, 4, 0,20,15.00,30.00,Sunday
7,10.35
2,4, 1, 4, 0,20,30.00,45.00,Sunday
7,9.675
2,4, 1, 4, 0,20,45.00,60.00,Sunday
7,9.0
2,4, 1, 4, 0,20, 0.00,60.00,Sunday
8,10.0125
2,4, 1, 4, 0,21, 0.00,15.00,Sunday
7,9.025
2,4, 1, 4, 0,21,15.00,30.00,Sunday
7,9.05
2,4, 1, 4, 0,21,30.00,45.00,Sunday
7,9.075
2,4, 1, 4, 0,21,45.00,60.00,Sunday
7,9.1
2,4, 1, 4, 0,21, 0.00,60.00,Sunday
8,9.0625
2,4, 1, 4, 0,22, 0.00,15.00,Sunday
7,9.299999999999999
2,4, 1, 4, 0,22,15.00,30.00,Sunday
7,9.5
2,4, 1, 4, 0,22,30.00,45.00,Sunday
7,9.700000000000001
2,4, 1, 4, 0,22,45.00,60.00,Sunday
7,9.9
2,4, 1, 4, 0,22, 0.00,60.00,Sunday
8,9.6
2,4, 1, 4, 0,23, 0.00,15.00,Sunday
7,9.65
2,4, 1, 4, 0,23,15.00,30.00,Sunday
7,9.4
2,4, 1, 4, 0,23,30.00,45.00,Sunday
7,9.15
2,4, 1, 4, 0,23,45.00,60.00,Sunday
7,8.9
2,4, 1, 4, 0,23, 0.00,60.00,Sunday
8,9.275
2,4, 1, 4, 0,24, 0.00,15.00,Sunday
7,8.675
2,4, 1, 4, 0,24,15.00,30.00,Sunday
7,8.45
2,4, 1, 4, 0,24,30.00,45.00,Sunday
7,8.225
2,4, 1, 4, 0,24,45.00,60.00,Sunday
7,8.0
2,4, 1, 4, 0,24, 0.00,60.00,Sunday
8,8.3375
2,5, 1, 5, 0, 1, 0.00,15.00,Monday
7,8.0
2,5, 1, 5, 0, 1,15.00,30.00,Monday
7,8.0
2,5, 1, 5, 0, 1,30.00,45.00,Monday
7,8.0
2,5, 1, 5, 0, 1,45.00,60.00,Monday
7,8.0
2,5, 1, 5, 0, 1, 0.00,60.00,Monday
8,8.0
2,5, 1, 5, 0, 2, 0.00,15.00,Monday
7,8.0
2,5, 1, 5, 0, 2,15.00,30.00,Monday
7,8.0
2,5, 1, 5, 0, 2,30.00,45.00,Monday
7,8.0
2,5, 1, 5, 0, 2,45.00,60.00,Monday
7,8.0
2,5, 1, 5, 0, 2, 0.00,60.00,Monday
8,8.0
2,5, 1, 5, 0, 3, 0.00,15.00,Monday
7,8.0
2,5, 1, 5, 0, 3,15.00,30.00,Monday
7,8.0
2,5, 1, 5, 0, 3,30.00,45.00,Monday
7,8.0
2,5, 1, 5, 0, 3,45.00,60.00,Monday
7,8.0
2,5, 1, 5, 0, 3, 0.00,60.00,Monday
8,8.0
2,5, 1, 5, 0, 4, 0.00,15.00,Monday
7,8.0
2,5, 1, 5, 0, 4,15.00,30.00,Monday
7,8.0
2,5, 1, 5, 0, 4,30.00,45.00,Monday
7,8.0
2,5, 1, 5, 0, 4,45.00,60.00,Monday
7,8.0
2,5, 1, 5, 0, 4, 0.00,60.00,Monday
8,8.0
2,5, 1, 5, 0, 5, 0.00,15.00,Monday
7,7.95
2,5, 1, 5, 0, 5,15.00,30.00,Monday
7,7.9
2,5, 1, 5, 0, 5,30.00,45.00,Monday
7,7.85
2,5, 1, 5, 0, 5,45.00,60.00,Monday
7,7.8
2,5, 1, 5, 0, 5, 0.00,60.00,Monday
8,7.875000000000001
2,5, 1, 5, 0, 6, 0.00,15.00,Monday
7,7.375
2,5, 1, 5, 0, 6,15.00,30.00,Monday
7,6.949999999999999
2,5, 1, 5, 0, 6,30.00,45.00,Monday
7,6.5249999999999999
2,5, 1, 5, 0, 6,45.00,60.00,Monday
7,6.1
2,5, 1, 5, 0, 6, 0.00,60.00,Monday
8,6.737499999999999
2,5, 1, 5, 0, 7, 0.00,15.00,Monday
7,6.324999999999999
2,5, 1, 5, 0, 7,15.00,30.00,Monday
7,6.55
2,5, 1, 5, 0, 7,30.00,45.00,Monday
7,6.775
2,5, 1, 5, 0, 7,45.00,60.00,Monday
7,7.0
2,5, 1, 5, 0, 7, 0.00,60.00,Monday
8,6.6625
2,5, 1, 5, 0, 8, 0.00,15.00,Monday
7,7.025
2,5, 1, 5, 0, 8,15.00,30.00,Monday
7,7.05
2,5, 1, 5, 0, 8,30.00,45.00,Monday
7,7.074999999999999
2,5, 1, 5, 0, 8,45.00,60.00,Monday
7,7.1
2,5, 1, 5, 0, 8, 0.00,60.00,Monday
8,7.0625
2,5, 1, 5, 0, 9, 0.00,15.00,Monday
7,7.35
2,5, 1, 5, 0, 9,15.00,30.00,Monday
7,7.6
2,5, 1, 5, 0, 9,30.00,45.00,Monday
7,7.85
2,5, 1, 5, 0, 9,45.00,60.00,Monday
7,8.1
2,5, 1, 5, 0, 9, 0.00,60.00,Monday
8,7.725
2,5, 1, 5, 0,10, 0.00,15.00,Monday
7,8.399999999999999
2,5, 1, 5, 0,10,15.00,30.00,Monday
7,8.7
2,5, 1, 5, 0,10,30.00,45.00,Monday
7,9.0
2,5, 1, 5, 0,10,45.00,60.00,Monday
7,9.3
2,5, 1, 5, 0,10, 0.00,60.00,Monday
8,8.85
2,5, 1, 5, 0,11, 0.00,15.00,Monday
7,10.0
2,5, 1, 5, 0,11,15.00,30.00,Monday
7,10.7
2,5, 1, 5, 0,11,30.00,45.00,Monday
7,11.399999999999999
2,5, 1, 5, 0,11,45.00,60.00,Monday
7,12.1
2,5, 1, 5, 0,11, 0.00,60.00,Monday
8,11.049999999999999
2,5, 1, 5, 0,12, 0.00,15.00,Monday
7,12.375
2,5, 1, 5, 0,12,15.00,30.00,Monday
7,12.649999999999999
2,5, 1, 5, 0,12,30.00,45.00,Monday
7,12.924999999999999
2,5, 1, 5, 0,12,45.00,60.00,Monday
7,13.2
2,5, 1, 5, 0,12, 0.00,60.00,Monday
8,12.787499999999998
2,5, 1, 5, 0,13, 0.00,15.00,Monday
7,13.649999999999999
2,5, 1, 5, 0,13,15.00,30.00,Monday
7,14.1
2,5, 1, 5, 0,13,30.00,45.00,Monday
7,14.55
2,5, 1, 5, 0,13,45.00,60.00,Monday
7,15.0
2,5, 1, 5, 0,13, 0.00,60.00,Monday
8,14.325
2,5, 1, 5, 0,14, 0.00,15.00,Monday
7,15.025
2,5, 1, 5, 0,14,15.00,30.00,Monday
7,15.05
2,5, 1, 5, 0,14,30.00,45.00,Monday
7,15.075
2,5, 1, 5, 0,14,45.00,60.00,Monday
7,15.1
2,5, 1, 5, 0,14, 0.00,60.00,Monday
8,15.062500000000002
2,5, 1, 5, 0,15, 0.00,15.00,Monday
7,15.325
2,5, 1, 5, 0,15,15.00,30.00,Monday
7,15.55
2,5, 1, 5, 0,15,30.00,45.00,Monday
7,15.775
2,5, 1, 5, 0,15,45.00,60.00,Monday
7,16.0
2,5, 1, 5, 0,15, 0.00,60.00,Monday
8,15.6625
2,5, 1, 5, 0,16, 0.00,15.00,Monday
7,16.0
2,5, 1, 5, 0,16,15.00,30.00,Monday
7,16.0
2,5, 1, 5, 0,16,30.00,45.00,Monday
7,16.0
2,5, 1, 5, 0,16,45.00,60.00,Monday
7,16.0
2,5, 1, 5, 0,16, 0.00,60.00,Monday
8,16.0
2,5, 1, 5, 0,17, 0.00,15.00,Monday
7,15.95
2,5, 1, 5, 0,17,15.00,30.00,Monday
7,15.9
2,5, 1, 5, 0,17,30.00,45.00,Monday
7,15.850000000000002
2,5, 1, 5, 0,17,45.00,60.00,Monday
7,15.8
2,5, 1, 5, 0,17, 0.00,60.00,Monday
8,15.875
2,5, 1, 5, 0,18, 0.00,15.00,Monday
7,15.575000000000001
2,5, 1, 5, 0,18,15.00,30.00,Monday
7,15.350000000000002
2,5, 1, 5, 0,18,30.00,45.00,Monday
7,15.125
2,5, 1, 5, 0,18,45.00,60.00,Monday
7,14.9
2,5, 1, 5, 0,18, 0.00,60.00,Monday
8,15.2375
2,5, 1, 5, 0,19, 0.00,15.00,Monday
7,14.65
2,5, 1, 5, 0,19,15.00,30.00,Monday
7,14.4
2,5, 1, 5, 0,19,30.00,45.00,Monday
7,14.15
2,5, 1, 5, 0,19,45.00,60.00,Monday
7,13.9
2,5, 1, 5, 0,19, 0.00,60.00,Monday
8,14.275
2,5, 1, 5, 0,20, 0.00,15.00,Monday
7,13.65
2,5, 1, 5, 0,20,15.00,30.00,Monday
7,13.4
2,5, 1, 5, 0,20,30.00,45.00,Monday
7,13.15
2,5, 1, 5, 0,20,45.00,60.00,Monday
7,12.9
2,5, 1, 5, 0,20, 0.00,60.00,Monday
8,13.275
2,5, 1, 5, 0,21, 0.00,15.00,Monday
7,12.65
2,5, 1, 5, 0,21,15.00,30.00,Monday
7,12.4
2,5, 1, 5, 0,21,30.00,45.00,Monday
7,12.15
2,5, 1, 5, 0,21,45.00,60.00,Monday
7,11.9
2,5, 1, 5, 0,21, 0.00,60.00,Monday
8,12.275
2,5, 1, 5, 0,22, 0.00,15.00,Monday
7,11.675
2,5, 1, 5, 0,22,15.00,30.00,Monday
7,11.45
2,5, 1, 5, 0,22,30.00,45.00,Monday
7,11.225
2,5, 1, 5, 0,22,45.00,60.00,Monday
7,11.0
2,5, 1, 5, 0,22, 0.00,60.00,Monday
8,11.3375
2,5, 1, 5, 0,23, 0.00,15.00,Monday
7,10.975
2,5, 1, 5, 0,23,15.00,30.00,Monday
7,10.95
2,5, 1, 5, 0,23,30.00,45.00,Monday
7,10.925
2,5, 1, 5, 0,23,45.00,60.00,Monday
7,10.9
2,5, 1, 5, 0,23, 0.00,60.00,Monday
8,10.937499999999999
2,5, 1, 5, 0,24, 0.00,15.00,Monday
7,10.65
2,5, 1, 5, 0,24,15.00,30.00,Monday
7,10.4
2,5, 1, 5, 0,24,30.00,45.00,Monday
7,10.15
2,5, 1, 5, 0,24,45.00,60.00,Monday
7,9.9
2,5, 1, 5, 0,24, 0.00,60.00,Monday
8,10.275
2,6, 1, 6, 0, 1, 0.00,15.00,Tuesday
7,9.65
2,6, 1, 6, 0, 1,15.00,30.00,Tuesday
7,9.4
2,6, 1, 6, 0, 1,30.00,45.00,Tuesday
7,9.15
2,6, 1, 6, 0, 1,45.00,60.00,Tuesday
7,8.9
2,6, 1, 6, 0, 1, 0.00,60.00,Tuesday
8,9.275
2,6, 1, 6, 0, 2, 0.00,15.00,Tuesday
7,8.625
2,6, 1, 6, 0, 2,15.00,30.00,Tuesday
7,8.35
2,6, 1, 6, 0, 2,30.00,45.00,Tuesday
7,8.075
2,6, 1, 6, 0, 2,45.00,60.00,Tuesday
7,7.8
2,6, 1, 6, 0, 2, 0.00,60.00,Tuesday
8,8.2125
2,6, 1, 6, 0, 3, 0.00,15.00,Tuesday
7,7.35
2,6, 1, 6, 0, 3,15.00,30.00,Tuesday
7,6.9
2,6, 1, 6, 0, 3,30.00,45.00,Tuesday
7,6.45
2,6, 1, 6, 0, 3,45.00,60.00,Tuesday
7,6.0
2,6, 1, 6, 0, 3, 0.00,60.00,Tuesday
8,6.675
2,6, 1, 6, 0, 4, 0.00,15.00,Tuesday
7,6.025
2,6, 1, 6, 0, 4,15.00,30.00,Tuesday
7,6.05
2,6, 1, 6, 0, 4,30.00,45.00,Tuesday
7,6.074999999999999
2,6, 1, 6, 0, 4,45.00,60.00,Tuesday
7,6.1
2,6, 1, 6, 0, 4, 0.00,60.00,Tuesday
8,6.0625
2,6, 1, 6, 0, 5, 0.00,15.00,Tuesday
7,6.2749999999999999
2,6, 1, 6, 0, 5,15.00,30.00,Tuesday
7,6.449999999999999
2,6, 1, 6, 0, 5,30.00,45.00,Tuesday
7,6.625
2,6, 1, 6, 0, 5,45.00,60.00,Tuesday
7,6.8
2,6, 1, 6, 0, 5, 0.00,60.00,Tuesday
8,6.5375
2,6, 1, 6, 0, 6, 0.00,15.00,Tuesday
7,6.375
2,6, 1, 6, 0, 6,15.00,30.00,Tuesday
7,5.949999999999999
2,6, 1, 6, 0, 6,30.00,45.00,Tuesday
7,5.5249999999999999
2,6, 1, 6, 0, 6,45.00,60.00,Tuesday
7,5.1
2,6, 1, 6, 0, 6, 0.00,60.00,Tuesday
8,5.737499999999999
2,6, 1, 6, 0, 7, 0.00,15.00,Tuesday
7,5.375
2,6, 1, 6, 0, 7,15.00,30.00,Tuesday
7,5.65
2,6, 1, 6, 0, 7,30.00,45.00,Tuesday
7,5.925000000000001
2,6, 1, 6, 0, 7,45.00,60.00,Tuesday
7,6.2
2,6, 1, 6, 0, 7, 0.00,60.00,Tuesday
8,5.7875000000000009
2,6, 1, 6, 0, 8, 0.00,15.00,Tuesday
7,6.625
2,6, 1, 6, 0, 8,15.00,30.00,Tuesday
7,7.050000000000001
2,6, 1, 6, 0, 8,30.00,45.00,Tuesday
7,7.4750000000000009
2,6, 1, 6, 0, 8,45.00,60.00,Tuesday
7,7.9
2,6, 1, 6, 0, 8, 0.00,60.00,Tuesday
8,7.262500000000001
2,6, 1, 6, 0, 9, 0.00,15.00,Tuesday
7,7.7250000000000009
2,6, 1, 6, 0, 9,15.00,30.00,Tuesday
7,7.550000000000001
2,6, 1, 6, 0, 9,30.00,45.00,Tuesday
7,7.375
2,6, 1, 6, 0, 9,45.00,60.00,Tuesday
7,7.2
2,6, 1, 6, 0, 9, 0.00,60.00,Tuesday
8,7.4625
2,6, 1, 6, 0,10, 0.00,15.00,Tuesday
7,7.75
2,6, 1, 6, 0,10,15.00,30.00,Tuesday