Program Version,EnergyPlus, Version 9.0.1-bb7ca4f0da, YMD=2019.12.18 16:45
1,5,Environment Title[],Latitude[deg],Longitude[deg],Time Zone[],Elevation[m]
2,8,Day of Simulation[],Month[],Day of Month[],DST Indicator[1=yes 0=no],Hour[],StartMinute[],EndMinute[],DayType
3,5,Cumulative Day of Simulation[],Month[],Day of Month[],DST Indicator[1=yes 0=no],DayType  ! When Daily Meters Requested
4,2,Cumulative Days of Simulation[],Month[]  ! When Monthly Meters Requested
5,1,Cumulative Days of Simulation[] ! When Run Period Meters Requested
6,1,Calendar Year of Simulation[] ! When Annual Meters Requested
993,1,InteriorEquipment:Electricity [J] !Hourly
47,1,InteriorLights:Electricity [J] !Hourly
11,1,Electricity:Facility [J] !Hourly
4114,1,Fans:Electricity [J] !Hourly
4471,1,Pumps:Electricity [J] !Hourly
4235,1,Heating:Electricity [J] !Hourly
4350,1,Cooling:Electricity [J] !Hourly
2366,1,WaterSystems:Gas [J] !Hourly
2228,1,WaterSystems:Electricity [J] !Hourly
1497,1,Gas:Facility [J] !Hourly
1533,1,InteriorEquipment:Gas [J] !Hourly
4222,1,Heating:Gas [J] !Hourly
1017,1,Receptacle:InteriorEquipment:Electricity [J] !Hourly
1557,1,Receptacle:InteriorEquipment:Gas [J] !Hourly
71,1,ComplianceLtg:InteriorLights:Electricity [J] !Hourly
346,1,NonComplianceLtg:InteriorLights:Electricity [J] !Hourly
4126,1,General:Fans:Electricity [J] !Hourly
4162,1,ProcessMotors:Fans:Electricity [J] !Hourly
End of Data Dictionary
1,PALM-SPRINGS-INTL_722868_CZ2010,  33.83,-116.50,  -8.00, 137.00
2,1, 1, 1, 0, 1, 0.00,60.00,Holiday
11,66335310.82537524
47,24156278.99999996
71,4835078.999999999
346,19321199.999999968
993,18722069.99999997
1017,18722069.99999997
1497,1036803.7371187409
1533,0.0
1557,0.0
2228,799255.3799648944
2366,1036803.7371187409
4114,22657706.445410395
4126,8458341.339612136
4162,14199365.105798256
4222,0.0
4235,0.0
4350,0.0
4471,0.0
2,1, 1, 1, 0, 2, 0.00,60.00,Holiday
11,67134674.69923872
47,24156278.99999996
71,4835078.999999999
346,19321199.999999968
993,18722069.99999997
1017,18722069.99999997
1497,1036639.8789899157
1533,0.0
1557,0.0
2228,1598619.2538283908
2366,1036639.8789899157
4114,22657706.445410395
4126,8458341.339612136
4162,14199365.105798256
4222,0.0
4235,0.0
4350,0.0
4471,0.0
2,1, 1, 1, 0, 3, 0.00,60.00,Holiday
11,66335517.465538259
47,24156278.99999996
71,4835078.999999999
346,19321199.999999968
993,18722069.99999997
1017,18722069.99999997
1497,1036728.7940429015
1533,0.0
1557,0.0
2228,799462.0201279129
2366,1036728.7940429015
4114,22657706.445410395
4126,8458341.339612136
4162,14199365.105798256
4222,0.0
4235,0.0
4350,0.0
4471,0.0
2,1, 1, 1, 0, 4, 0.00,60.00,Holiday
11,67128270.48379539
47,24156278.99999996
71,4835078.999999999
346,19321199.999999968
993,18722069.99999997
1017,18722069.99999997
1497,1144506.1562557105
1533,0.0
1557,0.0
2228,1587294.194306409
2366,1032469.0990418852
4114,22662627.289489036
4126,8458341.339612136
4162,14199365.105798256
4222,112037.0572138253
4235,0.0
4350,0.0
4471,0.0
2,1, 1, 1, 0, 5, 0.00,60.00,Holiday
11,66558243.92962183
47,24156278.99999996
71,4835078.999999999
346,19321199.999999968
993,18722069.99999997
1017,18722069.99999997
1497,5744067.983682103
1533,0.0
1557,0.0
2228,793672.2262197973
2366,1032561.0783346922
4114,22886222.70340208
4126,8458341.339612136
4162,14199365.105798256
4222,4711506.905347412
4235,0.0
4350,0.0
4471,0.0
2,1, 1, 1, 0, 6, 0.00,60.00,Holiday
11,125911321.05211306
47,52754678.99999992
71,4835078.999999999
346,47919599.99999992
993,47320469.999999929
1017,47320469.999999929
1497,69616604.60353288
1533,0.0
1557,0.0
2228,793738.2777017175
2366,1297487.9364569574
4114,25042433.774411389
4126,10490501.918585619
4162,14199365.105798256
4222,68319116.66707593
4235,0.0
4350,0.0
4471,0.0
2,1, 1, 1, 0, 7, 0.00,60.00,Holiday
11,190046562.81635643
47,74197425.58443065
71,4829025.584430775
346,69368399.9999999
993,68769269.9999999
1017,68769269.9999999
1497,497447269.4089302
1533,28597212.921243654
1557,28597212.921243654
2228,1598565.074778461
2366,1036717.8398690221
4114,45481302.15714736
4126,10490501.91858562
4162,14199365.105798256
4222,467813338.6478175
4235,0.0
4350,0.0
4471,0.0
2,1, 1, 1, 0, 8, 0.00,60.00,Holiday
11,179768947.31675089
47,74026515.30637476
71,4658115.306374883
346,69368399.9999999
993,68769269.9999999
1017,68769269.9999999
1497,299714920.1697372
1533,28597212.921243654
1557,28597212.921243654
2228,1633623.5466927426
2366,1189440.2824402364
4114,35339538.463683489
4126,10490501.918585619
4162,14199365.105798256
4222,269928266.96605339
4235,0.0
4350,0.0
4471,0.0
2,1, 1, 1, 0, 9, 0.00,60.00,Holiday
11,192052980.35044749
47,77220145.16224224
71,7851745.1622423599
346,69368399.9999999
993,72641339.99999988
1017,72641339.99999988
1497,492274672.1543864
1533,0.0
1557,0.0
2228,2486905.9131024905
2366,1184022.7207643819
4114,39085526.13082916
4126,19472246.41092965
4162,14199365.105798256
4222,491090649.433622
4235,65707.68859424186
4350,0.0
4471,553355.4556794148
2,1, 1, 1, 0,10, 0.00,60.00,Holiday
11,186188414.82316519
47,77228480.97771563
71,7860080.977715753
346,69368399.9999999
993,72641339.99999988
1017,72641339.99999988
1497,374781614.7022787
1533,0.0
1557,0.0
2228,2524514.6044474795
2366,1335956.3750312445
4114,33500038.06224423
4126,16519577.605455207
4162,14199365.105798256
4222,373445658.32724747
4235,48102.53087718308
4350,0.0
4471,245938.64788074385
2,1, 1, 1, 0,11, 0.00,60.00,Holiday
11,187521367.1116904
47,75839924.60062333
71,27920324.60062337
346,47919599.99999992
993,74424959.99999996
1017,74424959.99999996
1497,239156262.9120245
1533,0.0
1557,0.0
2228,4743565.172741184
2366,2003299.0278717154
4114,32281804.72445597
4126,16519577.605455207
4162,14199365.105798256
4222,237152963.8841528
4235,25974.669231669104
4350,0.0
4471,205137.9446382976
2,1, 1, 1, 0,12, 0.00,60.00,Holiday
11,187588617.81169964
47,75958998.02252406
71,28039398.022524097
346,47919599.99999992
993,74424959.99999996
1017,74424959.99999996
1497,190129351.22531445
1533,11438885.168497468
1557,11438885.168497468
2228,5790598.314203026
2366,2030777.4995297723
4114,31194580.817850584
4126,16519577.605455207
4162,14199365.105798256
4222,176659688.55728723
4235,19293.9335573979
4350,0.0
4471,200186.72356469788
2,1, 1, 1, 0,13, 0.00,60.00,Holiday
11,212854369.6427662
47,85884078.75634398
71,37964478.75634399
346,47919599.99999992
993,89913239.99999997
1017,89913239.99999997
1497,137118205.7403379
1533,11438885.168497468
1557,11438885.168497468
2228,6052321.960316041
2366,2080804.8390138939
4114,30795134.959356548
4126,16519577.605455207
4162,14199365.105798256
4222,123598515.73282653
4235,11293.617279127608
4350,0.0
4471,198300.34947062887
2,1, 1, 1, 0,14, 0.00,60.00,Holiday
11,212728742.25992853
47,85781092.4546581
71,37861492.454658139
346,47919599.99999992
993,89913239.99999997
1017,89913239.99999997
1497,121677885.97648788
1533,0.0
1557,0.0
2228,6052125.259678159
2366,2393480.6576876037
4114,30728038.103095034
4126,16519577.605455207
4162,14199365.105798256
4222,119284405.31880027
4235,10783.442329620733
4350,45205.95902048658
4471,198257.04114721676
2,1, 1, 1, 0,15, 0.00,60.00,Holiday
11,214357928.22996379
47,85845036.26699069
71,37925436.26699072
346,47919599.99999992
993,89913239.99999997
1017,89913239.99999997
1497,107590033.55803627
1533,0.0
1557,0.0
2228,5944450.022427703
2366,2060466.1074367655
4114,31029691.285785244
4126,16544815.589368206
4162,14199365.105798256
4222,105529567.45059949
4235,8475.280801140061
4350,1418871.278873035
4471,198164.0950860461
2,1, 1, 1, 0,16, 0.00,60.00,Holiday
11,215383019.7095313
47,85657344.07984236
71,37737744.079842399
346,47919599.99999992
993,89913239.99999997
1017,89913239.99999997
1497,99531174.1568398
1533,0.0
1557,0.0
2228,5996968.181412471
2366,2061626.298543346
4114,31254594.382868526
4126,16581203.612829043
4162,14199365.105798256
4222,97469547.85829644
4235,7260.7797903145169
4350,2355443.6311237325
4471,198168.6544940017
2,1, 1, 1, 0,17, 0.00,60.00,Holiday
11,218194082.97487987
47,88978047.84037556
71,41058447.84037558
346,47919599.99999992
993,89913239.99999997
1017,89913239.99999997
1497,128992892.43694069
1533,28597212.921243654
1557,28597212.921243654
2228,7124601.348147039
2366,2328227.8909709097
4114,30991947.019253058
4126,16595186.985007424
4162,14199365.105798256
4222,98067451.62472613
4235,7303.74565850814
4350,980773.2737665867
4471,198169.74767922617
2,1, 1, 1, 0,18, 0.00,60.00,Holiday
11,189996885.4694943
47,78647111.99999994
71,30727511.99999999
346,47919599.99999992
993,74424959.99999996
1017,74424959.99999996
1497,143512575.38587974
1533,28597212.921243654
1557,28597212.921243654
2228,5944536.714384846
2366,2102112.3109270676
4114,30727900.91914636
4126,16519577.605455207
4162,14199365.105798256
4222,112813250.15370903
4235,9697.016826297084
4350,44499.073122499016
4471,198179.74601444906
2,1, 1, 1, 0,19, 0.00,60.00,Holiday
11,241160193.5637272
47,106749035.99999982
71,15931835.999999995
346,90817199.99999984
993,101834279.99999984
1017,101834279.99999984
1497,141053641.64957486
1533,28597212.921243654
1557,28597212.921243654
2228,3670082.198648215
2366,1685247.2609386505
4114,28686782.132279979
4126,14487417.026481722
4162,14199365.105798256
4222,110771181.46739255
4235,19832.519806223332
4350,0.0
4471,200180.71299307186
2,1, 1, 1, 0,20, 0.00,60.00,Holiday
11,270767775.3544767
47,124250678.9999998
71,4835078.999999999
346,119415599.9999998
993,118816469.99999982
1017,118816469.99999982
1497,1700855.772039196
1533,0.0
1557,0.0
2228,5042919.909066537
2366,1700855.772039196
4114,22657706.445410395
4126,8458341.339612136
4162,14199365.105798256
4222,0.0
4235,0.0
4350,0.0
4471,0.0
2,1, 1, 1, 0,21, 0.00,60.00,Holiday
11,298402369.2782724
47,138549878.9999998
71,4835078.999999999
346,133714799.99999979
993,133115669.99999979
1017,133115669.99999979
1497,1654537.6924906555
1533,0.0
1557,0.0
2228,4079113.8328623089
2366,1654537.6924906555
4114,22657706.445410395
4126,8458341.339612136
4162,14199365.105798256
4222,0.0
4235,0.0
4350,0.0
4471,0.0
2,1, 1, 1, 0,22, 0.00,60.00,Holiday
11,268288054.85493768
47,124250678.9999998
71,4835078.999999999
346,119415599.9999998
993,118816469.99999982
1017,118816469.99999982
1497,1627028.5839153585
1533,0.0
1557,0.0
2228,2563199.4095275618
2366,1627028.5839153585
4114,22657706.445410395
4126,8458341.339612136
4162,14199365.105798256
4222,0.0
4235,0.0
4350,0.0
4471,0.0
2,1, 1, 1, 0,23, 0.00,60.00,Holiday
11,210161826.1909779
47,95652278.99999984
71,4835078.999999999
346,90817199.99999984
993,90218069.99999985
1017,90218069.99999985
1497,1050298.4092972084
1533,0.0
1557,0.0
2228,1633770.7455677586
2366,1050298.4092972084
4114,22657706.445410395
4126,8458341.339612136
4162,14199365.105798256
4222,0.0
4235,0.0
4350,0.0
4471,0.0
2,1, 1, 1, 0,24, 0.00,60.00,Holiday
11,123616296.95809222
47,52754678.99999992
71,4835078.999999999
346,47919599.99999992
993,47320469.999999929
1017,47320469.999999929
1497,1032482.1489648606
1533,0.0
1557,0.0
2228,883441.5126818805
2366,1032482.1489648606
4114,22657706.445410395
4126,8458341.339612136
4162,14199365.105798256
4222,0.0
4235,0.0
4350,0.0
4471,0.0
2,2, 1, 2, 0, 1, 0.00,60.00,Friday
11,66230209.07475037
47,24156278.99999996
71,4835078.999999999
346,19321199.999999968
993,18722069.99999997
1017,18722069.99999997
1497,1025658.9529128042
1533,0.0
1557,0.0
2228,694153.6293400356
2366,1025658.9529128042
4114,22657706.445410395
4126,8458341.339612136
4162,14199365.105798256
4222,0.0
4235,0.0
4350,0.0
4471,0.0
2,2, 1, 2, 0, 2, 0.00,60.00,Friday
11,67112308.69036033
47,24156278.99999996
71,4835078.999999999
346,19321199.999999968
993,18722069.99999997
1017,18722069.99999997
1497,1029981.7319729029
1533,0.0
1557,0.0
2228,1576253.244949981
2366,1029981.7319729029
4114,22657706.445410395
4126,8458341.339612136
4162,14199365.105798256
4222,0.0
4235,0.0
4350,0.0
4471,0.0
2,2, 1, 2, 0, 3, 0.00,60.00,Friday
11,66324241.06465174
47,24156278.99999996
71,4835078.999999999
346,19321199.999999968
993,18722069.99999997
1017,18722069.99999997
1497,1030008.3235854075
1533,0.0
1557,0.0
2228,788185.6192413991
2366,1030008.3235854075
4114,22657706.445410395
4126,8458341.339612136
4162,14199365.105798256
4222,0.0
4235,0.0
4350,0.0
4471,0.0
2,2, 1, 2, 0, 4, 0.00,60.00,Friday
11,66326692.77115487
47,24156278.99999996
71,4835078.999999999
346,19321199.999999968
993,18722069.99999997
1017,18722069.99999997
1497,1207317.7580653758
1533,0.0
1557,0.0
2228,782656.9984663951
2366,1025622.835495868
4114,22665686.77268853
4126,8458341.339612136
4162,14199365.105798256
4222,181694.92256950768
4235,0.0
4350,0.0
4471,0.0
2,2, 1, 2, 0, 5, 0.00,60.00,Friday
11,66515308.722396198
47,24156278.99999996
71,4835078.999999999
346,19321199.999999968
993,18722069.99999997
1017,18722069.99999997
1497,5097735.323282525
1533,0.0
1557,0.0
2228,782619.8512237002
2366,1025532.9470624307
4114,22854339.871172538
4126,8458341.339612136
4162,14199365.105798256
4222,4072202.376220094
4235,0.0
4350,0.0
4471,0.0
2,2, 1, 2, 0, 6, 0.00,60.00,Friday
11,127515709.40051699
47,53890838.99999992
71,5971238.999999999
346,47919599.99999992
993,47871269.999999929
1017,47871269.999999929
1497,67886075.75310189
1533,0.0
1557,0.0
2228,782631.237266419
2366,1031223.8598822174
4114,24970969.16325061
4126,10490501.918585619
4162,14199365.105798256
4222,66854851.893219668
4235,0.0
4350,0.0
4471,0.0
2,2, 1, 2, 0, 7, 0.00,60.00,Friday
11,204469295.49884875
47,80349589.75783402
71,5959189.757834133
346,74390399.99999988
993,69320069.9999999
1017,69320069.9999999
1497,835677221.0624439
1533,28597212.921243654
1557,28597212.921243654
2228,719616.5256244827
2366,1029421.1711583061
4114,53442433.42255814
4126,19246803.79874123
4162,14199365.105798256
4222,806050586.970042
4235,72571.63993309057
4350,0.0
4471,565014.1528990896
2,2, 1, 2, 0, 8, 0.00,60.00,Friday
11,221005814.13183976
47,95003710.09029937
71,20613310.090299503
346,74390399.99999988
993,83139479.99999988
1017,83139479.99999988
1497,558001863.7699699
1533,28882321.086319496
1557,28882321.086319496
2228,2612504.8655435268
2366,1658345.6320626164
4114,39921443.777667019
4126,16519577.605455207
4162,14199365.105798256
4222,527461197.0515878
4235,54679.5413567904
4350,0.0
4471,273995.85697313366
2,2, 1, 2, 0, 9, 0.00,60.00,Friday
11,275523628.52465346
47,122909368.6939622
71,48518968.69396234
346,74390399.99999988
993,112981499.99999987
1017,112981499.99999987
1497,371611004.2906028
1533,285108.16507584266
1557,285108.16507584266
2228,3613223.7115538904
2366,2111144.100368559
4114,35757085.92999388
4126,16519577.605455207
4162,14199365.105798256
4222,369214752.0251584
4235,37454.17540881775
4350,0.0
4471,224996.0137347987
2,2, 1, 2, 0,10, 0.00,60.00,Friday
11,330012590.5896873
47,146860525.97164545
71,72470125.9716455
346,74390399.99999988
993,143958059.99999995
1017,143958059.99999995
1497,241907201.4944718
1533,285108.16507584266
1557,285108.16507584266
2228,5845536.8447906509
2366,2715642.1389894245
4114,33119535.25065148
4126,16589251.45065243
4162,14199365.105798256
4222,238906451.19040645
4235,23393.167387363752
4350,0.0
4471,205539.35521248313
2,2, 1, 2, 0,11, 0.00,60.00,Friday
11,288838435.1666807
47,126280573.37380968
71,73338973.37380971
346,52941599.9999999
993,122509259.99999996
1017,122509259.99999996
1497,162149587.9185418
1533,513194.69713651677
1557,513194.69713651677
2228,7400707.260129784
2366,2779751.2227664676
4114,32436461.070794785
4126,16735399.772594296
4162,14199365.105798256
4222,158856641.9986388
4235,12599.154158851201
4350,0.0
4471,198834.30778775153
2,2, 1, 2, 0,12, 0.00,60.00,Friday
11,289317182.5892734
47,125041061.42821753
71,72099461.42821756
346,52941599.9999999
993,122509259.99999996
1017,122509259.99999996
1497,97343111.46843264
1533,11952079.865633984
1557,11952079.865633984
2228,9968768.40315485
2366,3578731.734978553
4114,31593659.798943558
4126,17056489.645303996
4162,14199365.105798256
4222,81812299.8678201
4235,6184.333367631326
4350,0.0
4471,198248.62558985927
2,2, 1, 2, 0,13, 0.00,60.00,Friday
11,292565278.18586668
47,127442868.08032233
71,74501268.08032234
346,52941599.9999999
993,122509259.99999996
1017,122509259.99999996
1497,61816374.9935441
1533,11952079.865633984
1557,11952079.865633984
2228,10563110.434081193
2366,4010797.833713405
4114,31849802.643514635
4126,17602621.399023966
4162,14199365.105798256
4222,45853497.294196698
4235,1367.4304717548999
4350,0.0
4471,198869.597476857
2,2, 1, 2, 0,14, 0.00,60.00,Friday
11,293567533.18965247
47,128151410.69999123
71,75209810.69999124
346,52941599.9999999
993,122509259.99999996
1017,122509259.99999996
1497,31494366.234064513
1533,513194.69713651677
1557,513194.69713651677
2228,10441016.813487964
2366,3935828.4836427515
4114,32266331.30226682
4126,18066250.095334617
4162,14199365.105798256
4222,27045343.053285246
4235,471.36989660150206
4350,0.0
4471,199043.00400993386
2,2, 1, 2, 0,15, 0.00,60.00,Friday
11,292965826.2374609
47,128309731.0979111
71,75368131.09791112
346,52941599.9999999
993,122509259.99999996
1017,122509259.99999996
1497,25131047.15403709
1533,427662.2476137639
1557,427662.2476137639
2228,9245278.384718417
2366,3227826.4030364516
4114,32702080.05510074
4126,18502714.949302485
4162,14199365.105798256
4222,21475558.503386875
4235,423.6555414295762
4350,0.0
4471,199053.04418933777
2,2, 1, 2, 0,16, 0.00,60.00,Friday
11,289067845.1413452
47,125175201.33699039
71,72233601.3369904
346,52941599.9999999
993,122509259.99999996
1017,122509259.99999996
1497,22784171.430043475
1533,427662.2476137639
1557,427662.2476137639
2228,7691059.704584947
2366,2979725.9470580758
4114,33492922.71016154
4126,19293557.60436328
4162,14199365.105798256
4222,19376783.235371639
4235,326.8824274975151
4350,0.0
4471,199074.50718089904
2,2, 1, 2, 0,17, 0.00,60.00,Friday
11,294046280.7279718
47,130064363.62646272
71,77122763.62646276
346,52941599.9999999
993,122509259.99999996
1017,122509259.99999996
1497,53019125.824091058
1533,29024875.168857416
1557,29024875.168857416
2228,7769195.871263731
2366,3077269.44432262
4114,33504021.57152964
4126,19304656.46573139
4162,14199365.105798256
4222,20916981.21091102
4235,376.81880200765837
4350,0.0
4471,199062.83991382353
2,2, 1, 2, 0,18, 0.00,60.00,Friday
11,283486459.5223781
47,123776342.99999996
71,70834742.99999997
346,52941599.9999999
993,118102859.99999997
1017,118102859.99999997
1497,79808704.1600737
1533,29024875.168857416
1557,29024875.168857416
2228,8589450.494212227
2366,2962716.615916607
4114,32818276.170212989
4126,18618911.064414734
4162,14199365.105798256
4222,47821112.37529969
4235,493.95169090293657
4350,0.0
4471,199035.90626206989
2,2, 1, 2, 0,19, 0.00,60.00,Friday
11,317208756.2750514
47,143344268.99999986
71,47505068.99999999
346,95839199.99999984
993,135564839.99999989
1017,135564839.99999989
1497,117896455.1705164
1533,28597212.921243654
1557,28597212.921243654
2228,7067450.834782371
2366,2534056.6430034658
4114,31028532.93598132
4126,16829167.830183064
4162,14199365.105798256
4222,86765185.60626929
4235,5372.334718986753
4350,0.0
4471,198291.1695690339
2,2, 1, 2, 0,20, 0.00,60.00,Friday
11,373171811.9245428
47,171942668.99999974
71,47505068.99999999
346,124437599.9999998
993,164163239.99999974
1017,164163239.99999974
1497,107511836.25491478
1533,0.0
1557,0.0
2228,5998863.259367051
2366,2400636.9011662316
4114,30860609.709473049
4126,16661244.603674792
4162,14199365.105798256
4222,105111199.35374853
4235,8266.39731176554
4350,0.0
4471,198163.55839137923
2,2, 1, 2, 0,21, 0.00,60.00,Friday
11,386423319.2224471
47,180270629.9999997
71,41533829.999999988
346,138736799.9999998
993,169616699.99999974
1017,169616699.99999974
1497,116462308.65460946
1533,0.0
1557,0.0
2228,5554695.929359242
2366,2099136.4785714044
4114,30773217.951671997
4126,16573852.845873736
4162,14199365.105798256
4222,114363172.17603806
4235,9889.626995379815
4350,0.0
4471,198185.71442090546
2,2, 1, 2, 0,22, 0.00,60.00,Friday
11,305066378.25576737
47,143777915.9999998
71,19340315.999999998
346,124437599.9999998
993,132085079.9999998
1017,132085079.9999998
1497,60969693.37796152
1533,0.0
1557,0.0
2228,4513515.231383852
2366,1806679.9676627643
4114,24689867.024383874
4126,10490501.918585619
4162,14199365.105798256
4222,59163013.41029875
4235,0.0
4350,0.0
4471,0.0
2,2, 1, 2, 0,23, 0.00,60.00,Friday
11,214752264.5787164
47,96788438.99999984
71,5971238.999999999
346,90817199.99999984
993,90768869.99999985
1017,90768869.99999985
1497,60823693.9691573
1533,0.0
1557,0.0
2228,2505088.5543327855
2366,1321836.353011849
4114,24689867.024383874
4126,10490501.918585619
4162,14199365.105798256
4222,59501857.616145458
4235,0.0
4350,0.0
4471,0.0
2,2, 1, 2, 0,24, 0.00,60.00,Friday
11,125570109.18207991
47,52754678.99999992
71,4835078.999999999
346,47919599.99999992
993,47320469.999999929
1017,47320469.999999929
1497,60886183.10982068
1533,0.0
1557,0.0
2228,805093.1576960764
2366,1199558.4419787992
4114,24689867.024383874
4126,10490501.918585619
4162,14199365.105798256
4222,59686624.66784188
4235,0.0
4350,0.0
4471,0.0
2,3, 1, 3, 0, 1, 0.00,60.00,Saturday
11,68004779.48144335
47,24156278.99999996
71,4835078.999999999
346,19321199.999999968
993,18722069.99999997
1017,18722069.99999997
1497,1321125.2614519643
1533,0.0
1557,0.0
2228,2468724.0360330028
2366,1321125.2614519643
4114,22657706.445410395
4126,8458341.339612136
4162,14199365.105798256
4222,0.0
4235,0.0
4350,0.0
4471,0.0
2,3, 1, 3, 0, 2, 0.00,60.00,Saturday
11,67169932.06787679
47,24156278.99999996
71,4835078.999999999
346,19321199.999999968
993,18722069.99999997
1017,18722069.99999997
1497,1052037.138215658
1533,0.0
1557,0.0
2228,1633876.6224664525
2366,1052037.138215658
4114,22657706.445410395
4126,8458341.339612136
4162,14199365.105798256
4222,0.0
4235,0.0
4350,0.0
4471,0.0
2,3, 1, 3, 0, 3, 0.00,60.00,Saturday
11,67146338.42346365
47,24156278.99999996
71,4835078.999999999
346,19321199.999999968
993,18722069.99999997
1017,18722069.99999997
1497,1303955.1448497556
1533,0.0
1557,0.0
2228,1610282.978053298
2366,1303955.1448497556
4114,22657706.445410395
4126,8458341.339612136
4162,14199365.105798256
4222,0.0
4235,0.0
4350,0.0
4471,0.0
2,3, 1, 3, 0, 4, 0.00,60.00,Saturday
11,66329796.17953468
47,24156278.99999996
71,4835078.999999999
346,19321199.999999968
993,18722069.99999997
1017,18722069.99999997
1497,1033903.7423023243
1533,0.0
1557,0.0
2228,793740.7341243462
2366,1033903.7423023243
4114,22657706.445410395
4126,8458341.339612136
4162,14199365.105798256
4222,0.0
4235,0.0
4350,0.0
4471,0.0
2,3, 1, 3, 0, 5, 0.00,60.00,Saturday
11,66329813.05233686
47,24156278.99999996
71,4835078.999999999
346,19321199.999999968
993,18722069.99999997
1017,18722069.99999997
1497,1034052.9456841829
1533,0.0
1557,0.0
2228,793757.6069265183
2366,1034052.9456841829
4114,22657706.445410395
4126,8458341.339612136
4162,14199365.105798256
4222,0.0
4235,0.0
4350,0.0
4471,0.0
2,3, 1, 3, 0, 6, 0.00,60.00,Saturday
11,126352680.67749056
47,52754678.99999992
71,4835078.999999999
346,47919599.99999992
993,47320469.999999929
1017,47320469.999999929
1497,61308287.67074742
1533,0.0
1557,0.0
2228,1587664.6531067286
2366,1040079.8315404678
4114,24689867.024383874
4126,10490501.918585619
4162,14199365.105798256
4222,60268207.83920695
4235,0.0
4350,0.0
4471,0.0
2,3, 1, 3, 0, 7, 0.00,60.00,Saturday
11,187089198.82300676
47,80353887.60673084
71,5963487.6067309579
346,74390399.99999988
993,69320069.9999999
1017,69320069.9999999
1497,394415856.90915307
1533,28597212.921243654
1557,28597212.921243654
2228,799509.1354847326
2366,1303216.2952621247
4114,36337590.751513529
4126,16663458.89672324
4162,14199365.105798256
4222,364515427.6926472
4235,36525.10705953439
4350,0.0
4471,241616.22221824723
2,3, 1, 3, 0, 8, 0.00,60.00,Saturday
11,192855905.55080898
47,83575095.01602593
71,9184695.016026047
346,74390399.99999988
993,73192139.99999988
1017,73192139.99999988
1497,301693130.7241763
1533,28597212.921243654
1557,28597212.921243654
2228,3526237.4189982435
2366,1669937.315619345
4114,32320027.78590863
4126,16519577.605455207
4162,14199365.105798256
4222,271425980.4873133
4235,32255.096284888936
4350,0.0
4471,210150.23359135068
2,3, 1, 3, 0, 9, 0.00,60.00,Saturday
11,228414785.2819357
47,101408358.07689302
71,27017958.07689316
346,74390399.99999988
993,90883619.99999987
1017,90883619.99999987
1497,200275667.58366198
1533,285108.16507584266
1557,285108.16507584266
2228,4551528.208062287
2366,1725575.8769007147
4114,31346734.69934871
4126,16519577.605455209
4162,14199365.105798256
4222,198264983.54168544
4235,22568.240577063923
4350,0.0
4471,201976.0570547256
2,3, 1, 3, 0,10, 0.00,60.00,Saturday
11,267986966.68749265
47,118021940.1176323
71,43631540.117632437
346,74390399.99999988
993,114116039.99999988
1017,114116039.99999988
1497,131927840.30156474
1533,285108.16507584266
1557,285108.16507584266
2228,4666506.296533989
2366,2266199.3247218846
4114,30972243.133866267
4126,16564357.846688884
4162,14199365.105798256
4222,129376532.81176703
4235,11822.156735893152
4350,0.0
4471,198414.98272427263
2,3, 1, 3, 0,11, 0.00,60.00,Saturday
11,271940862.20197799
47,116523935.99531035
71,63582335.99531037
346,52941599.9999999
993,115899659.99999997
1017,115899659.99999997
1497,79462965.93393807
1533,513194.69713651677
1557,513194.69713651677
2228,7468541.912988124
2366,2601116.689452875
4114,31237342.83447373
4126,16814780.484242299
4162,14199365.105798256
4222,76348654.54734868
4235,3930.10014024669
4350,608941.0121883674
4471,198510.34687726759
2,3, 1, 3, 0,12, 0.00,60.00,Saturday
11,278316891.81323376
47,116581494.70240635
71,63639894.70240636
346,52941599.9999999
993,115899659.99999997
1017,115899659.99999997
1497,51630873.88331581
1533,11952079.865633984
1557,11952079.865633984
2228,9639305.418404244
2366,3057324.8105540715
4114,32253453.637923436
4126,17666540.419723564
4162,14199365.105798256
4222,36621469.20712775
4235,399.7871226332483
4350,3743519.873399987
4471,199058.3939772736
2,3, 1, 3, 0,13, 0.00,60.00,Saturday
11,281487070.1805156
47,113147241.18540915
71,60205641.18540916
346,52941599.9999999
993,114247259.99999997
1017,114247259.99999997
1497,48588543.25855717
1533,11952079.865633984
1557,11952079.865633984
2228,10187826.816929482
2366,3277964.5705072588
4114,33563093.270754609
4126,18583015.29671637
4162,14199365.105798256
4222,33358498.82241593
4235,321.64314304817989
4350,10142251.551991106
4471,199075.71228831533
2,3, 1, 3, 0,14, 0.00,60.00,Saturday
11,287239070.70991
47,113368942.51061702
71,60427342.51061703
346,52941599.9999999
993,114247259.99999997
1017,114247259.99999997
1497,31198567.460372997
1533,513194.69713651677
1557,513194.69713651677
2228,10306506.341398828
2366,3324194.7825203698
4114,34937316.51217878
4126,19534819.11174787
4162,14199365.105798256
4222,27361177.98071611
4235,269.27397962612238
4350,14179688.625181066
4471,199087.44655477137
2,3, 1, 3, 0,15, 0.00,60.00,Saturday
11,290201369.2402919
47,113930220.74333327
71,60988620.74333328
346,52941599.9999999
993,114247259.99999997
1017,114247259.99999997
1497,28240549.17274813
1533,427662.2476137639
1557,427662.2476137639
2228,8630557.73636562
2366,2844398.5524979478
4114,36324167.11690098
4126,20512910.4509214
4162,14199365.105798256
4222,24968488.37263642
4235,240.2369205376629
4350,16869829.459048295
4471,199093.94772331842
2,3, 1, 3, 0,16, 0.00,60.00,Saturday
11,293921702.5424704
47,112854192.93714825
71,59912592.93714826
346,52941599.9999999
993,114247259.99999997
1017,114247259.99999997
1497,23151602.876069577
1533,427662.2476137639
1557,427662.2476137639
2228,8428641.758994494
2366,2634661.9170779439
4114,37499167.869507808
4126,20980224.070362398
4162,14199365.105798256
4222,20089278.71137787
4235,223.1460558149447
4350,20693119.093884544
4471,199097.7368797302
2,3, 1, 3, 0,17, 0.00,60.00,Saturday
11,289791064.9800786
47,117701725.79670084
71,64760125.79670086
346,52941599.9999999
993,114247259.99999997
1017,114247259.99999997
1497,55096033.09155476
1533,29024875.168857416
1557,29024875.168857416
2228,7840049.139885336
2366,2841648.196951216
4114,36372992.72660671
4126,20976936.128116654
4162,14199365.105798256
4222,23229509.72574614
4235,225.04629131644749
4350,13429715.143844586
4471,199097.12674995978
2,3, 1, 3, 0,18, 0.00,60.00,Saturday
11,271424701.3133804
47,111937382.99999996
71,64017782.99999998
346,47919599.99999992
993,113145659.99999997
1017,113145659.99999997
1497,67817810.22850318
1533,28597212.921243654
1557,28597212.921243654
2228,8398832.875668366
2366,2544213.3878944807
4114,34186240.88038307
4126,19895919.816680816
4162,14199365.105798256
4222,36676383.91936505
4235,343.6910000041325
4350,3557171.472604719
4471,199069.39372442885
2,3, 1, 3, 0,19, 0.00,60.00,Saturday
11,293160658.2535718
47,128942549.99999987
71,38125349.999999988
346,90817199.99999984
993,125066699.99999988
1017,125066699.99999988
1497,86145324.2077792
1533,28597212.921243654
1557,28597212.921243654
2228,7884453.500427239
2366,2480417.592188221
4114,30843287.419007787
4126,16599111.121820018
4162,14199365.105798256
4222,55067693.69434734
4235,1765.6265684278729
4350,223119.29901619996
4471,198782.40855236597
2,3, 1, 3, 0,20, 0.00,60.00,Saturday
11,318133940.5188367
47,142745273.9999998
71,23329673.999999994
346,119415599.9999998
993,138176819.9999998
1017,138176819.9999998
1497,33432198.748657817
1533,0.0
1557,0.0
2228,6226135.29759623
2366,2084826.365760763
4114,29036847.776465455
4126,14487417.026481722
4162,14199365.105798256
4222,31347372.38289705
4235,5612.44698685345
4350,1744975.8872619239
4471,198275.110526585
2,3, 1, 3, 0,21, 0.00,60.00,Saturday
11,346325457.8080939
47,157044473.99999977
71,23329673.999999994
346,133714799.99999979
993,152476019.99999977
1017,152476019.99999977
1497,43065444.018528107
1533,0.0
1557,0.0
2228,4742872.429665219
2366,2015882.7349236895
4114,29216293.294027915
4126,14487417.026481722
4162,14199365.105798256
4222,41049561.28360441
4235,7349.531045974375
4350,2640281.697431452
4471,198166.85592370569
2,3, 1, 3, 0,22, 0.00,60.00,Saturday
11,285262886.755838
47,127949597.9999998
71,8533997.999999999
346,119415599.9999998
993,122688539.9999998
1017,122688539.9999998
1497,106668289.22083539
1533,0.0
1557,0.0
2228,4087193.9759546297
2366,1678734.7026201396
4114,28959367.50154464