Program Version,EnergyPlus, Version 9.0.1-bb7ca4f0da, YMD=2019.12.18 15:07
1,5,Environment Title[],Latitude[deg],Longitude[deg],Time Zone[],Elevation[m]
2,8,Day of Simulation[],Month[],Day of Month[],DST Indicator[1=yes 0=no],Hour[],StartMinute[],EndMinute[],DayType
3,5,Cumulative Day of Simulation[],Month[],Day of Month[],DST Indicator[1=yes 0=no],DayType  ! When Daily Meters Requested
4,2,Cumulative Days of Simulation[],Month[]  ! When Monthly Meters Requested
5,1,Cumulative Days of Simulation[] ! When Run Period Meters Requested
6,1,Calendar Year of Simulation[] ! When Annual Meters Requested
993,1,InteriorEquipment:Electricity [J] !Hourly
47,1,InteriorLights:Electricity [J] !Hourly
11,1,Electricity:Facility [J] !Hourly
4114,1,Fans:Electricity [J] !Hourly
1497,1,Gas:Facility [J] !Hourly
4471,1,Pumps:Electricity [J] !Hourly
4235,1,Heating:Electricity [J] !Hourly
4350,1,Cooling:Electricity [J] !Hourly
1017,1,Receptacle:InteriorEquipment:Electricity [J] !Hourly
2228,1,WaterSystems:Electricity [J] !Hourly
1533,1,InteriorEquipment:Gas [J] !Hourly
4222,1,Heating:Gas [J] !Hourly
2366,1,WaterSystems:Gas [J] !Hourly
1557,1,Receptacle:InteriorEquipment:Gas [J] !Hourly
71,1,ComplianceLtg:InteriorLights:Electricity [J] !Hourly
346,1,NonComplianceLtg:InteriorLights:Electricity [J] !Hourly
4126,1,General:Fans:Electricity [J] !Hourly
4162,1,ProcessMotors:Fans:Electricity [J] !Hourly
End of Data Dictionary
1,ARCATA_725945_CZ2010,  40.98,-124.10,  -8.00,  62.00
2,1, 1, 1, 0, 1, 0.00,60.00,Holiday
11,66352323.81204873
47,24156278.99999996
71,4835078.999999999
346,19321199.999999968
993,18722069.99999997
1017,18722069.99999997
1497,1260039.9520582483
1533,0.0
1557,0.0
2228,808159.42810323
2366,1045181.4957208587
4114,22665815.383945548
4126,8458341.339612136
4162,14199365.105798256
4222,214858.4563373894
4235,0.0
4350,0.0
4471,0.0
2,1, 1, 1, 0, 2, 0.00,60.00,Holiday
11,67241509.84315798
47,24156278.99999996
71,4835078.999999999
346,19321199.999999968
993,18722069.99999997
1017,18722069.99999997
1497,3622187.4241167588
1533,0.0
1557,0.0
2228,1616201.7876584982
2366,1105214.443315766
4114,22746959.055499529
4126,8458341.339612136
4162,14199365.105798256
4222,2516972.980800993
4235,0.0
4350,0.0
4471,0.0
2,1, 1, 1, 0, 3, 0.00,60.00,Holiday
11,71207756.72044377
47,24156278.99999996
71,4835078.999999999
346,19321199.999999968
993,18722069.99999997
1017,18722069.99999997
1497,10286526.243080516
1533,0.0
1557,0.0
2228,1616145.739029232
2366,1246190.3866329713
4114,26630139.936510419
4126,12157901.851164893
4162,14199365.105798256
4222,9040335.856447544
4235,204.00835440382739
4350,0.0
4471,82918.03654976182
2,1, 1, 1, 0, 4, 0.00,60.00,Holiday
11,71575209.6985384
47,24156278.99999996
71,4835078.999999999
346,19321199.999999968
993,18722069.99999997
1017,18722069.99999997
1497,19249806.59491016
1533,0.0
1557,0.0
2228,1601994.7594733276
2366,1039617.3923643724
4114,26995012.43972383
4126,12255312.363479786
4162,14199365.105798256
4222,18210189.202545793
4235,389.4258651452331
4350,0.0
4471,99464.07347613189
2,1, 1, 1, 0, 5, 0.00,60.00,Holiday
11,71043916.25381348
47,24156278.99999996
71,4835078.999999999
346,19321199.999999968
993,18722069.99999997
1017,18722069.99999997
1497,29760834.91335152
1533,0.0
1557,0.0
2228,800949.88705113
2366,1240929.8790545143
4114,27264490.011266687
4126,12255312.363479786
4162,14199365.105798256
4222,28519905.034297009
4235,745.9570778960099
4350,0.0
4471,99381.39841783028
2,1, 1, 1, 0, 6, 0.00,60.00,Holiday
11,131661176.69463308
47,52754678.99999992
71,4835078.999999999
346,47919599.99999992
993,47320469.999999929
1017,47320469.999999929
1497,80835681.73216215
1533,0.0
1557,0.0
2228,1602203.4195165509
2366,1106043.2192110243
4114,29858552.9908928
4126,15236715.698420182
4162,14199365.105798256
4222,79729638.51295114
4235,1049.998047883242
4350,0.0
4471,124221.28617589287
2,1, 1, 1, 0, 7, 0.00,60.00,Holiday
11,190957543.7123151
47,74203478.99999988
71,4835078.999999999
346,69368399.9999999
993,68769269.9999999
1017,68769269.9999999
1497,596917981.2430915
1533,28597212.921243654
1557,28597212.921243654
2228,1615933.0646076943
2366,1146062.9476114724
4114,46234967.726370457
4126,15553129.950409156
4162,14199365.105798256
4222,567174705.3742364
4235,1437.9079991876286
4350,0.0
4471,132456.01333801746
2,1, 1, 1, 0, 8, 0.00,60.00,Holiday
11,181993989.75956185
47,74190773.33067349
71,4822373.330673599
346,69368399.9999999
993,68769269.9999999
1017,68769269.9999999
1497,350603546.7471085
1533,28597212.921243654
1557,28597212.921243654
2228,2489212.593763318
2366,1224907.3630751896
4114,36443958.7546236
4126,13896256.35223684
4162,14199365.105798256
4222,320781426.46278968
4235,1505.1210408714715
4350,0.0
4471,99269.95946062327
2,1, 1, 1, 0, 9, 0.00,60.00,Holiday
11,199856848.25648365
47,77458266.95595426
71,8089866.955954378
346,69368399.9999999
993,72641339.99999988
1017,72641339.99999988
1497,640684355.3909824
1533,0.0
1557,0.0
2228,2535136.4353297615
2366,1543481.5745971876
4114,46106134.007372077
4126,25978178.06977196
4162,14199365.105798256
4222,639140873.8163853
4235,84196.4874972675
4350,0.0
4471,1031774.3703304047
2,1, 1, 1, 0,10, 0.00,60.00,Holiday
11,189426993.7083675
47,77451121.14334968
71,8082721.143349804
346,69368399.9999999
993,72641339.99999988
1017,72641339.99999988
1497,543456022.4025612
1533,0.0
1557,0.0
2228,2582701.1924985975
2366,1423370.6395343403
4114,36339538.26872094
4126,16636789.450941656
4162,14199365.105798256
4222,542032651.7630268
4235,62026.02953017951
4350,0.0
4471,350267.0742682085
2,1, 1, 1, 0,11, 0.00,60.00,Holiday
11,195962002.89072175
47,77795314.82580559
71,29875714.825805636
346,47919599.99999992
993,74424959.99999996
1017,74424959.99999996
1497,506653241.73761788
1533,0.0
1557,0.0
2228,6008310.324167168
2366,2067441.684941398
4114,37450933.10333526
4126,16519577.605455209
4162,14199365.105798256
4222,504585800.05267646
4235,44580.17355074231
4350,0.0
4471,237904.46386307298
2,1, 1, 1, 0,12, 0.00,60.00,Holiday
11,194713277.4606529
47,76685576.64225662
71,28765976.642256664
346,47919599.99999992
993,74424959.99999996
1017,74424959.99999996
1497,456797338.58668306
1533,11438885.168497468
1557,11438885.168497468
2228,7167106.0746902399
2366,2404109.4238391707
4114,36173847.35886312
4126,16519577.605455209
4162,14199365.105798256
4222,442954343.99434646
4235,39361.67802518479
4350,0.0
4471,222425.70681780292
2,1, 1, 1, 0,13, 0.00,60.00,Holiday
11,220944464.9405523
47,87437473.23202646
71,39517873.232026498
346,47919599.99999992
993,89913239.99999997
1017,89913239.99999997
1497,399795932.74207988
1533,11438885.168497468
1557,11438885.168497468
2228,7589553.695642668
2366,2478310.5876444599
4114,35762955.91119127
4126,16519577.605455209
4162,14199365.105798256
4222,385878736.98593798
4235,30798.382826457208
4350,0.0
4471,210443.71886553267
2,1, 1, 1, 0,14, 0.00,60.00,Holiday
11,221041168.47019828
47,87608532.64498724
71,39688932.64498727
346,47919599.99999992
993,89913239.99999997
1017,89913239.99999997
1497,379825740.26815339
1533,0.0
1557,0.0
2228,7590013.849483232
2366,2498931.191890697
4114,35689949.51925262
4126,16519577.605455209
4162,14199365.105798256
4222,377326809.0762627
4235,29653.583898096076
4350,0.0
4471,209778.87257722248
2,1, 1, 1, 0,15, 0.00,60.00,Holiday
11,220693023.1491282
47,87651896.66020498
71,39732296.66020501
346,47919599.99999992
993,89913239.99999997
1017,89913239.99999997
1497,370192783.50578436
1533,0.0
1557,0.0
2228,7278570.449304389
2366,2448245.5968599135
4114,35612546.92022149
4126,16519577.605455209
4162,14199365.105798256
4222,367744537.90892449
4235,28280.54987498387
4350,0.0
4471,208488.56952241949
2,1, 1, 1, 0,16, 0.00,60.00,Holiday
11,223009341.44286008
47,89300166.79390821
71,41380566.79390822
346,47919599.99999992
993,89913239.99999997
1017,89913239.99999997
1497,378984442.9318869
1533,0.0
1557,0.0
2228,7264176.444650143
2366,2449830.6621441554
4114,36298845.45894531
4126,16519577.605455209
4162,14199365.105798256
4222,376534612.2697427
4235,26353.889089140663
4350,0.0
4471,206558.85626734718
2,1, 1, 1, 0,17, 0.00,60.00,Holiday
11,225009196.84235574
47,89703200.08297658
71,41783600.082976598
346,47919599.99999992
993,89913239.99999997
1017,89913239.99999997
1497,442905374.9734455
1533,28597212.921243654
1557,28597212.921243654
2228,8062116.257098952
2366,2480226.773540338
4114,37092862.10961552
4126,16519577.605455209
4162,14199365.105798256
4222,411827935.2786615
4235,28525.83216535076
4350,0.0
4471,209252.56049944045
2,1, 1, 1, 0,18, 0.00,60.00,Holiday
11,198328641.01457388
47,78647111.99999994
71,30727511.99999999
346,47919599.99999992
993,74424959.99999996
1017,74424959.99999996
1497,522845341.06705799
1533,28597212.921243654
1557,28597212.921243654
2228,6928971.654938881
2366,2434588.4847877828
4114,38067559.24874079
4126,16519577.605455209
4162,14199365.105798256
4222,491813539.6610265
4235,37942.38312067135
4350,0.0
4471,222095.72777370414
2,1, 1, 1, 0,19, 0.00,60.00,Holiday
11,247225631.876314
47,106749035.99999982
71,15931835.999999995
346,90817199.99999984
993,101834279.99999984
1017,101834279.99999984
1497,416097361.21299687
1533,28597212.921243654
1557,28597212.921243654
2228,5236755.862685171
2366,1767879.634394983
4114,33115497.707860449
4126,14487417.026481724
4162,14199365.105798256
4222,385732268.65735819
4235,47564.17913043172
4350,0.0
4471,242498.12663825273
2,1, 1, 1, 0,20, 0.00,60.00,Holiday
11,273197800.7616454
47,124250678.9999998
71,4835078.999999999
346,119415599.9999998
993,118816469.99999982
1017,118816469.99999982
1497,48609489.31995335
1533,0.0
1557,0.0
2228,5880506.398951409
2366,2100123.8923163556
4114,24250145.362694313
4126,8458341.339612136
4162,14199365.105798256
4222,46509365.427636999
4235,0.0
4350,0.0
4471,0.0
2,1, 1, 1, 0,21, 0.00,60.00,Holiday
11,299752160.8057568
47,138549878.9999998
71,4835078.999999999
346,133714799.99999979
993,133115669.99999979
1017,133115669.99999979
1497,25320397.774516178
1533,0.0
1557,0.0
2228,4606033.437577778
2366,1883345.1754505384
4114,23480578.368179386
4126,8458341.339612136
4162,14199365.105798256
4222,23437052.59906563
4235,0.0
4350,0.0
4471,0.0
2,1, 1, 1, 0,22, 0.00,60.00,Holiday
11,270660977.21216657
47,124250678.9999998
71,4835078.999999999
346,119415599.9999998
993,118816469.99999982
1017,118816469.99999982
1497,43408857.04431604
1533,0.0
1557,0.0
2228,3508181.7591009188
2366,1657364.3718278218
4114,24085646.453065896
4126,8458341.339612136
4162,14199365.105798256
4222,41751492.67248821
4235,0.0
4350,0.0
4471,0.0
2,1, 1, 1, 0,23, 0.00,60.00,Holiday
11,210187758.49028928
47,95652278.99999984
71,4835078.999999999
346,90817199.99999984
993,90218069.99999985
1017,90218069.99999985
1497,1302086.0528642545
1533,0.0
1557,0.0
2228,1659703.0448791292
2366,1302086.0528642545
4114,22657706.445410395
4126,8458341.339612136
4162,14199365.105798256
4222,0.0
4235,0.0
4350,0.0
4471,0.0
2,1, 1, 1, 0,24, 0.00,60.00,Holiday
11,124335072.64181127
47,52754678.99999992
71,4835078.999999999
346,47919599.99999992
993,47320469.999999929
1017,47320469.999999929
1497,1064487.3901553925
1533,0.0
1557,0.0
2228,1602217.196400931
2366,1064487.3901553925
4114,22657706.445410395
4126,8458341.339612136
4162,14199365.105798256
4222,0.0
4235,0.0
4350,0.0
4471,0.0
2,2, 1, 2, 0, 1, 0.00,60.00,Friday
11,66348321.6012318
47,24156278.99999996
71,4835078.999999999
346,19321199.999999968
993,18722069.99999997
1017,18722069.99999997
1497,1690215.3295097554
1533,0.0
1557,0.0
2228,787395.4787610377
2366,1031405.6169973409
4114,22682577.12247081
4126,8458341.339612136
4162,14199365.105798256
4222,658809.7125124144
4235,0.0
4350,0.0
4471,0.0
2,2, 1, 2, 0, 2, 0.00,60.00,Friday
11,66642221.66675279
47,24156278.99999996
71,4835078.999999999
346,19321199.999999968
993,18722069.99999997
1017,18722069.99999997
1497,9706831.717319778
1533,0.0
1557,0.0
2228,794135.8969708297
2366,1036536.4318812369
4114,22969736.76978202
4126,8458341.339612136
4162,14199365.105798256
4222,8670295.28543854
4235,0.0
4350,0.0
4471,0.0
2,2, 1, 2, 0, 3, 0.00,60.00,Friday
11,72068863.07181403
47,24156278.99999996
71,4835078.999999999
346,19321199.999999968
993,18722069.99999997
1017,18722069.99999997
1497,34007066.38881711
1533,0.0
1557,0.0
2228,1588240.4679820035
2366,1036731.4472087565
4114,27519140.515327693
4126,12241039.808659407
4162,14199365.105798256
4222,32970334.941608356
4235,219.79747787155575
4350,0.0
4471,82913.2910265161
2,2, 1, 2, 0, 4, 0.00,60.00,Friday
11,72217487.05801986
47,24156278.99999996
71,4835078.999999999
346,19321199.999999968
993,18722069.99999997
1017,18722069.99999997
1497,64106854.24439511
1533,0.0
1557,0.0
2228,787324.0719820724
2366,1031529.7725871303
4114,28451889.018132345
4126,12255312.363479784
4162,14199365.105798256
4222,63075324.47180797
4235,486.77748991362878
4350,0.0
4471,99438.19041558253
2,2, 1, 2, 0, 5, 0.00,60.00,Friday
11,72796194.70240489
47,24156278.99999996
71,4835078.999999999
346,19321199.999999968
993,18722069.99999997
1017,18722069.99999997
1497,82518528.57185537
1533,0.0
1557,0.0
2228,787407.1384323074
2366,1170963.9437849266
4114,29030379.528339935
4126,12255312.363479784
4162,14199365.105798256
4222,81347564.62807045
4235,655.8680774495201
4350,0.0
4471,99403.16755524691
2,2, 1, 2, 0, 6, 0.00,60.00,Friday
11,132754394.10950193
47,53890838.99999992
71,5971238.999999999
346,47919599.99999992
993,47871269.999999929
1017,47871269.999999929
1497,116644046.74649804
1533,0.0
1557,0.0
2228,787364.5788721229
2366,1157037.8148294073
4114,30104621.95308141
4126,14287472.94245327
4162,14199365.105798256
4222,115487008.93166861
4235,952.0661517215344
4350,0.0
4471,99346.51139670892
2,2, 1, 2, 0, 7, 0.00,60.00,Friday
11,215811316.45616514
47,80361638.99999988
71,5971238.999999999
346,74390399.99999988
993,69320069.9999999
1017,69320069.9999999
1497,1245948359.6613296
1533,28597212.921243654
1557,28597212.921243654
2228,787460.2588517647
2366,1036024.45203424
4114,63899355.976681958
4126,26600662.030206738
4162,14199365.105798256
4222,1216315122.2880517
4235,99079.80260741229
4350,0.0
4471,1343711.418024215
2,2, 1, 2, 0, 8, 0.00,60.00,Friday
11,226991388.90674658
47,95999149.24177122
71,21608749.241771349
346,74390399.99999988
993,83139479.99999988
1017,83139479.99999988
1497,829666474.028689
1533,28882321.086319496
1557,28882321.086319496
2228,3477501.9492528245
2366,1697033.89075077
4114,43924402.14778128
4126,16611843.148887735
4162,14199365.105798256
4222,799087119.0516188
4235,68760.67168572586
4350,0.0
4471,382094.89625560128
2,2, 1, 2, 0, 9, 0.00,60.00,Friday
11,285679254.452503
47,126039058.57671359
71,51648658.57671371
346,74390399.99999988
993,112981499.99999987
1017,112981499.99999987
1497,668566067.6830667
1533,285108.16507584266
1557,285108.16507584266
2228,4703946.625653573
2366,2474287.2894720246
4114,41633048.26761975
4126,16519577.605455209
4162,14199365.105798256
4222,665806672.2285189
4235,52650.605251961366
4350,0.0
4471,269050.37726425836
2,2, 1, 2, 0,10, 0.00,60.00,Friday
11,343908071.9284613
47,151182108.9867618
71,76791708.98676184
346,74390399.99999988
993,143958059.99999995
1017,143958059.99999995
1497,598829007.6234448
1533,285108.16507584266
1557,285108.16507584266
2228,7255847.562336864
2366,2973116.3722534754
4114,41229973.834896247
4126,16563788.768066463
4162,14199365.105798256
4222,595570783.0861154
4235,39949.631195508555
4350,0.0
4471,242131.91327103188
2,2, 1, 2, 0,11, 0.00,60.00,Friday
11,300373085.2434262
47,127790575.35014604
71,74848975.35014606
346,52941599.9999999
993,122509259.99999996
1017,122509259.99999996
1497,612159698.5373807
1533,513194.69713651677
1557,513194.69713651677
2228,8072990.884437932
2366,3524216.178071943
4114,41717082.77773321
4126,16594920.306804289
4162,14199365.105798256
4222,608122287.6621722
4235,39547.49823676879
4350,0.0
4471,243628.73287235603
2,2, 1, 2, 0,12, 0.00,60.00,Friday
11,301934104.80503198
47,126223571.11511801
71,73281971.11511803
346,52941599.9999999
993,122509259.99999996
1017,122509259.99999996
1497,573605515.0254134
1533,11952079.865633984
1557,11952079.865633984
2228,12708770.436573377
2366,4088022.7884520238
4114,40209140.770463179
4126,16805166.897731358
4162,14199365.105798256
4222,557565412.3713274
4235,39581.19885656947
4350,0.0
4471,243781.2840209235
2,2, 1, 2, 0,13, 0.00,60.00,Friday
11,298729450.7465626
47,125190520.36212494
71,72248920.36212495
346,52941599.9999999
993,122509259.99999996
1017,122509259.99999996
1497,476752308.7127644
1533,11952079.865633984
1557,11952079.865633984
2228,12850509.814711899
2366,4766339.887510218
4114,37919194.039798069
4126,16878718.96368342
4162,14199365.105798256
4222,460033888.9596202
4235,34097.281491784255
4350,0.0
4471,225869.24843614724
2,2, 1, 2, 0,14, 0.00,60.00,Friday
11,296087100.51171496
47,124624973.9859934
71,71683373.98599342
346,52941599.9999999
993,122509259.99999996
1017,122509259.99999996
1497,371115430.93825569
1533,513194.69713651677
1557,513194.69713651677
2228,12977363.2464609
2366,4443068.295445286
4114,35733541.78322489
4126,16928868.76555828
4162,14199365.105798256
4222,366159167.9456739
4235,29008.711294376957
4350,0.0
4471,212952.78474147534
2,2, 1, 2, 0,15, 0.00,60.00,Friday
11,293994933.6883776
47,124704598.97704515
71,71762998.97704518
346,52941599.9999999
993,122509259.99999996
1017,122509259.99999996
1497,378611488.89084306
1533,427662.2476137639
1557,427662.2476137639
2228,10922857.24724932
2366,3702738.5656646697
4114,35610327.02970776
4126,16986901.148229224
4162,14199365.105798256
4222,374481088.0775646
4235,31268.35614195567
4350,0.0
4471,216622.0782334313
2,2, 1, 2, 0,16, 0.00,60.00,Friday
11,293136777.78702726
47,124782661.78840523
71,71841061.78840524
346,52941599.9999999
993,122509259.99999996
1017,122509259.99999996
1497,413669331.99015948
1533,427662.2476137639
1557,427662.2476137639
2228,9308724.045042832
2366,3504804.495834926
4114,36273324.16554986
4126,17285989.988125676
4162,14199365.105798256
4222,409736865.2467108
4235,35451.69121406344
4350,0.0
4471,227356.09681532577
2,2, 1, 2, 0,17, 0.00,60.00,Friday
11,298126113.6765263
47,128617177.98763688
71,75675577.9876369
346,52941599.9999999
993,122509259.99999996
1017,122509259.99999996
1497,469932642.18798139
1533,29024875.168857416
1557,29024875.168857416
2228,9666351.060788606
2366,3628811.222119169
4114,37066062.76799661
4126,17272922.14197333
4162,14199365.105798256
4222,437278955.79700478
4235,36363.93902905214
4350,0.0
4471,230897.92107531834
2,2, 1, 2, 0,18, 0.00,60.00,Friday
11,290300641.9036119
47,123776342.99999996
71,70834742.99999997
346,52941599.9999999
993,118102859.99999997
1017,118102859.99999997
1497,505012722.87098017
1533,29024875.168857416
1557,29024875.168857416
2228,9983548.485991132
2366,3312656.704661003
4114,38174066.72475358
4126,16947638.363421978
4162,14199365.105798256
4222,472675190.9974617
4235,35377.87627325018
4350,0.0
4471,228445.8165941391
2,2, 1, 2, 0,19, 0.00,60.00,Friday
11,323574744.78107526
47,143344268.99999986
71,47505068.99999999
346,95839199.99999984
993,135564839.99999989
1017,135564839.99999989
1497,442291552.2457063
1533,28597212.921243654
1557,28597212.921243654
2228,8930386.697253146
2366,3024801.1051021127
4114,35458711.12186245
4126,16686777.869529803
4162,14199365.105798256
4222,410669538.2193605
4235,38182.98324837543
4350,0.0
4471,238354.97871151207
2,2, 1, 2, 0,20, 0.00,60.00,Friday
11,377885047.0272409
47,171942668.99999974
71,47505068.99999999
346,124437599.9999998
993,164163239.99999974
1017,164163239.99999974
1497,383366067.6961425
1533,0.0
1557,0.0
2228,7416703.4866533749
2366,2590468.4410038569
4114,34074831.929323259
4126,16553808.386670066
4162,14199365.105798256
4222,380775599.2551387
4235,40060.33193994147
4350,0.0
4471,247542.2793246287
2,2, 1, 2, 0,21, 0.00,60.00,Friday
11,390864558.81945857
47,180270629.9999997
71,41533829.999999988
346,138736799.9999998
993,169616699.99999974
1017,169616699.99999974
1497,373771893.19872859
1533,0.0
1557,0.0
2228,7246934.292379042
2366,2739218.6598984205
4114,33431865.01867869
4126,16519577.605455209
4162,14199365.105798256
4222,371032674.5388301
4235,42055.671080504435
4350,0.0
4471,256373.8373206709
2,2, 1, 2, 0,22, 0.00,60.00,Friday
11,308793083.81573477
47,143777915.9999998
71,19340315.999999998
346,124437599.9999998
993,132085079.9999998
1017,132085079.9999998
1497,166224743.97837524
1533,0.0
1557,0.0
2228,4777290.040362809
2366,1746578.9694488315
4114,28152797.775372205
4126,10490501.918585619
4162,14199365.105798256
4222,164478165.0089264
4235,0.0
4350,0.0
4471,0.0
2,2, 1, 2, 0,23, 0.00,60.00,Friday
11,214806397.4186787
47,96788438.99999984
71,5971238.999999999
346,90817199.99999984
993,90768869.99999985
1017,90768869.99999985
1497,62771303.56463556
1533,0.0
1557,0.0
2228,2559221.394295095
2366,1605833.8114407655
4114,24689867.024383874
4126,10490501.918585619
4162,14199365.105798256
4222,61165469.753194797
4235,0.0
4350,0.0
4471,0.0
2,2, 1, 2, 0,24, 0.00,60.00,Friday
11,126395528.56835713
47,52754678.99999992
71,4835078.999999999
346,47919599.99999992
993,47320469.999999929
1017,47320469.999999929
1497,62260015.6651662
1533,0.0
1557,0.0
2228,1630512.543973294
2366,1094545.9119713973
4114,24689867.024383874
4126,10490501.918585619
4162,14199365.105798256
4222,61165469.753194797
4235,0.0
4350,0.0
4471,0.0
2,3, 1, 3, 0, 1, 0.00,60.00,Saturday
11,68282617.25511803
47,24156278.99999996
71,4835078.999999999
346,19321199.999999968
993,18722069.99999997
1017,18722069.99999997
1497,7960746.154507544
1533,0.0
1557,0.0
2228,2512264.3834167805
2366,1507047.6518264986
4114,22892003.87170131
4126,8458341.339612136
4162,14199365.105798256
4222,6453698.502681046
4235,0.0
4350,0.0
4471,0.0
2,3, 1, 3, 0, 2, 0.00,60.00,Saturday
11,69253687.05775757
47,24156278.99999996
71,4835078.999999999
346,19321199.999999968
993,18722069.99999997
1017,18722069.99999997
1497,37796010.949322659
1533,0.0
1557,0.0
2228,2489332.026810648
2366,1231985.6185282432
4114,23886006.03094698
4126,8458341.339612136
4162,14199365.105798256
4222,36564025.33079441
4235,0.0
4350,0.0
4471,0.0
2,3, 1, 3, 0, 3, 0.00,60.00,Saturday
11,69304110.18288127
47,24156278.99999996
71,4835078.999999999
346,19321199.999999968
993,18722069.99999997
1017,18722069.99999997
1497,65936676.81367515
1533,0.0
1557,0.0
2228,1630229.8418993517
2366,1205318.8813000089
4114,24795531.34098197
4126,8458341.339612136
4162,14199365.105798256
4222,64731357.93237513
4235,0.0
4350,0.0
4471,0.0
2,3, 1, 3, 0, 4, 0.00,60.00,Saturday
11,68996067.39359565
47,24156278.99999996
71,4835078.999999999
346,19321199.999999968
993,18722069.99999997
1017,18722069.99999997
1497,81657533.60841191
1533,0.0
1557,0.0
2228,800830.0667407393
2366,1227564.8754171238
4114,25316888.326854975
4126,8458341.339612136
4162,14199365.105798256
4222,80429968.7329948
4235,0.0
4350,0.0
4471,0.0
2,3, 1, 3, 0, 5, 0.00,60.00,Saturday
11,70817472.24633508
47,24156278.99999996
71,4835078.999999999
346,19321199.999999968
993,18722069.99999997
1017,18722069.99999997
1497,112055340.88823127
1533,0.0
1557,0.0
2228,1601965.8511238849
2366,1116919.1096239342
4114,26337157.395211229
4126,8458341.339612136
4162,14199365.105798256
4222,110938421.77860734
4235,0.0
4350,0.0
4471,0.0
2,3, 1, 3, 0, 6, 0.00,60.00,Saturday
11,131510100.6283009
47,52754678.99999992
71,4835078.999999999
346,47919599.99999992
993,47320469.999999929
1017,47320469.999999929
1497,159571548.53560353
1533,0.0
1557,0.0
2228,1602332.4497638297
2366,1096233.576962973
4114,29799394.670335987
4126,12387707.598964915
4162,14199365.105798256
4222,158475314.95864056
4235,52.83763965301937
4350,0.0
4471,33171.670561482344
2,3, 1, 3, 0, 7, 0.00,60.00,Saturday
11,216893850.2094096
47,80361638.99999988
71,5971238.999999999
346,74390399.99999988
993,69320069.9999999
1017,69320069.9999999
1497,1366385997.8154875
1533,28597212.921243654
1557,28597212.921243654
2228,1025415.7118694843
2366,1268488.485259837
4114,64882065.80562458
4126,24155038.97040145
4162,14199365.105798256
4222,1336520296.4089843
4235,103094.341009353
4350,0.0
4471,1201565.3509063498
2,3, 1, 3, 0, 8, 0.00,60.00,Saturday
11,209172338.0881728
47,84041502.52443746
71,9651102.524437594
346,74390399.99999988
993,73192139.99999988
1017,73192139.99999988
1497,969126480.7019074
1533,28597212.921243654
1557,28597212.921243654
2228,4316019.147090916
2366,1997323.5248133604
4114,47043523.274101007
4126,16548780.47882456
4162,14199365.105798256
4222,938531944.2558506
4235,79626.06749369123
4350,0.0
4471,499527.0750497974
2,3, 1, 3, 0, 9, 0.00,60.00,Saturday
11,242224179.85842873
47,102347083.2799686
71,27956683.279968744
346,74390399.99999988
993,90883619.99999987
1017,90883619.99999987
1497,767877034.5706321
1533,285108.16507584266
1557,285108.16507584266
2228,5320420.559758978
2366,2065217.7415486533
4114,43267545.23656921
4126,16519577.605455209
4162,14199365.105798256
4222,765526708.6640077
4235,64494.36212257552
4350,0.0
4471,341016.42000943046
2,3, 1, 3, 0,10, 0.00,60.00,Saturday
11,279261977.20856729
47,118647986.80372595
71,44257586.80372608
346,74390399.99999988
993,114116039.99999988
1017,114116039.99999988
1497,634030593.4983978
1533,285108.16507584266
1557,285108.16507584266
2228,5302255.908847233
2366,2441060.625496625
4114,40867844.83929093
4126,16563811.68678926
4162,14199365.105798256
4222,631304424.7078254
4235,49900.74893873597
4350,0.0
4471,277948.9077644999
2,3, 1, 3, 0,11, 0.00,60.00,Saturday
11,280847395.46472629
47,116589354.47742993
71,63647754.47742994
346,52941599.9999999
993,115899659.99999997
1017,115899659.99999997
1497,518672083.771545
1533,513194.69713651677
1557,513194.69713651677
2228,9331201.160533822
2366,3007211.440186151
4114,38748076.89515758
4126,16652133.726890905
4162,14199365.105798256
4222,515151677.63422229
4235,38344.5924069131
4350,0.0
4471,240758.3391981318
2,3, 1, 3, 0,12, 0.00,60.00,Saturday
11,280484210.80760499
47,116599803.36212968
71,63658203.362129699
346,52941599.9999999
993,115899659.99999997
1017,115899659.99999997
1497,435068584.24318519
1533,11952079.865633984
1557,11952079.865633984
2228,11057605.748726028
2366,3672215.6342709159
4114,36672115.26249069
4126,16878545.433636097
4162,14199365.105798256
4222,419444288.7432803
4235,33052.48514462408
4350,0.0
4471,221973.94911401889
2,3, 1, 3, 0,13, 0.00,60.00,Saturday
11,276349256.8027852
47,113432809.21119537
71,60491209.211195398
346,52941599.9999999
993,114247259.99999997
1017,114247259.99999997
1497,355325299.278407
1533,11952079.865633984
1557,11952079.865633984
2228,13132156.653612029
2366,3793602.0207365949
4114,35300477.646622139
4126,16963069.189835505
4162,14199365.105798256
4222,339579617.3920364
4235,26856.362052277625
4350,0.0
4471,209696.9293034981
2,3, 1, 3, 0,14, 0.00,60.00,Saturday
11,275175496.2869482
47,113861270.1438429
71,60919670.14384292
346,52941599.9999999
993,114247259.99999997
1017,114247259.99999997
1497,304443986.5627095
1533,513194.69713651677
1557,513194.69713651677
2228,12333905.505784132
2366,3800639.1890371299
4114,34502847.85508093
4126,17009606.86926815
4162,14199365.105798256
4222,300130152.67653587
4235,24462.78300532071
4350,0.0
4471,205749.9992350422
2,3, 1, 3, 0,15, 0.00,60.00,Saturday
11,272476631.3069134
47,113962036.60620806
71,61020436.606208089
346,52941599.9999999
993,114247259.99999997
1017,114247259.99999997
1497,263469356.7223666
1533,427662.2476137639
1557,427662.2476137639
2228,10249097.939077545
2366,3116893.343543297
4114,33793129.90460202
4126,17147840.174031579
4162,14199365.105798256
4222,259924801.13120956
4235,21825.072708401694
4350,0.0
4471,203281.78431738146
2,3, 1, 3, 0,16, 0.00,60.00,Saturday
11,271547512.5042897
47,113533249.74774634
71,60591649.747746359
346,52941599.9999999
993,114247259.99999997
1017,114247259.99999997
1497,245284895.73657827
1533,427662.2476137639
1557,427662.2476137639
2228,10108116.359102572
2366,3090938.822061721
4114,33434394.59888507
4126,17381046.023984247
4162,14199365.105798256
4222,241766294.66690279
4235,21679.79477632164
4350,0.0
4471,202812.00377955318
2,3, 1, 3, 0,17, 0.00,60.00,Saturday
11,275548609.99845889
47,117338283.52174723
71,64396683.52174725
346,52941599.9999999
993,114247259.99999997
1017,114247259.99999997
1497,278015323.87049296
1533,29024875.168857416
1557,29024875.168857416
2228,9972296.680200648
2366,3300427.701452611
4114,33765972.63232812
4126,17609833.316939124
4162,14199365.105798256
4222,245690021.00018294
4235,21804.16720919202
4350,0.0
4471,202992.9969737925
2,3, 1, 3, 0,18, 0.00,60.00,Saturday
11,270122795.9933737
47,111937382.99999996
71,64017782.99999998
346,47919599.99999992
993,113145659.99999997
1017,113145659.99999997
1497,339842789.6555555
1533,28597212.921243654
1557,28597212.921243654
2228,9835937.149705116
2366,2912472.7332129229
4114,34974921.89367153
4126,17125989.432902405
4162,14199365.105798256
4222,308333104.0010989
4235,23973.70225173264
4350,0.0
4471,204920.24774546037
2,3, 1, 3, 0,19, 0.00,60.00,Saturday
11,296907599.59504798
47,128942549.99999987
71,38125349.999999988
346,90817199.99999984
993,125066699.99999988
1017,125066699.99999988
1497,319104046.1387826
1533,28597212.921243654
1557,28597212.921243654
2228,9577852.62551801
2366,2764391.9014329116
4114,33083240.74808772
4126,16520078.732336276
4162,14199365.105798256
4222,287742441.3161061
4235,27613.903353886868
4350,0.0
4471,209642.3180886666
2,3, 1, 3, 0,20, 0.00,60.00,Saturday
11,318399207.0476193
47,142745273.9999998
71,23329673.999999994
346,119415599.9999998
993,138176819.9999998
1017,138176819.9999998
1497,226602919.76477183
1533,0.0
1557,0.0
2228,7589460.290711072
2366,2525289.192884774
4114,29630931.21255892
4126,14487417.026481724
4162,14199365.105798256
4222,224077630.57188706
4235,35195.7518953103
4350,0.0
4471,221525.79245433026
2,3, 1, 3, 0,21, 0.00,60.00,Saturday
11,345317000.74892476
47,157044473.99999977
71,23329673.999999994
346,133714799.99999979
993,152476019.99999977
1017,152476019.99999977
1497,264853147.16178829
1533,0.0
1557,0.0
2228,6008799.110045647
2366,2344505.4422179439
4114,29499718.644007736
4126,14487417.026481724
4162,14199365.105798256
4222,262508641.71957035
4235,44138.06925426772
4350,0.0
4471,243850.92561740275
2,3, 1, 3, 0,22, 0.00,60.00,Saturday