Program Version,EnergyPlus, Version 9.0.1-bb7ca4f0da, YMD=2019.12.18 16:02
1,5,Environment Title[],Latitude[deg],Longitude[deg],Time Zone[],Elevation[m]
2,8,Day of Simulation[],Month[],Day of Month[],DST Indicator[1=yes 0=no],Hour[],StartMinute[],EndMinute[],DayType
3,5,Cumulative Day of Simulation[],Month[],Day of Month[],DST Indicator[1=yes 0=no],DayType  ! When Daily Meters Requested
4,2,Cumulative Days of Simulation[],Month[]  ! When Monthly Meters Requested
5,1,Cumulative Days of Simulation[] ! When Run Period Meters Requested
6,1,Calendar Year of Simulation[] ! When Annual Meters Requested
1557,1,Receptacle:InteriorEquipment:Gas [J] !Hourly
4235,1,Heating:Electricity [J] !Hourly
1533,1,InteriorEquipment:Gas [J] !Hourly
4471,1,Pumps:Electricity [J] !Hourly
11,1,Electricity:Facility [J] !Hourly
47,1,InteriorLights:Electricity [J] !Hourly
993,1,InteriorEquipment:Electricity [J] !Hourly
4350,1,Cooling:Electricity [J] !Hourly
4114,1,Fans:Electricity [J] !Hourly
2228,1,WaterSystems:Electricity [J] !Hourly
1497,1,Gas:Facility [J] !Hourly
2366,1,WaterSystems:Gas [J] !Hourly
4222,1,Heating:Gas [J] !Hourly
1017,1,Receptacle:InteriorEquipment:Electricity [J] !Hourly
71,1,ComplianceLtg:InteriorLights:Electricity [J] !Hourly
346,1,NonComplianceLtg:InteriorLights:Electricity [J] !Hourly
4126,1,General:Fans:Electricity [J] !Hourly
4162,1,ProcessMotors:Fans:Electricity [J] !Hourly
End of Data Dictionary
1,SAN-DIEGO-LINDBERGH_722900_CZ2010,  32.73,-117.17,  -8.00,   4.00
2,1, 1, 1, 0, 1, 0.00,60.00,Holiday
11,66337979.16710846
47,24156278.99999996
71,4835078.999999999
346,19321199.999999968
993,18722069.99999997
1017,18722069.99999997
1497,1039286.286026072
1533,0.0
1557,0.0
2228,801923.7216981216
2366,1039286.286026072
4114,22657706.445410395
4126,8458341.339612136
4162,14199365.105798258
4222,0.0
4235,0.0
4350,0.0
4471,0.0
2,1, 1, 1, 0, 2, 0.00,60.00,Holiday
11,67139985.48802035
47,24156278.99999996
71,4835078.999999999
346,19321199.999999968
993,18722069.99999997
1017,18722069.99999997
1497,1039258.1384220762
1533,0.0
1557,0.0
2228,1603930.0426100004
2366,1039258.1384220762
4114,22657706.445410395
4126,8458341.339612136
4162,14199365.105798258
4222,0.0
4235,0.0
4350,0.0
4471,0.0
2,1, 1, 1, 0, 3, 0.00,60.00,Holiday
11,67076558.63767101
47,24156278.99999996
71,4835078.999999999
346,19321199.999999968
993,18722069.99999997
1017,18722069.99999997
1497,1039330.7457634196
1533,0.0
1557,0.0
2228,1540503.1922606705
2366,1039330.7457634196
4114,22657706.445410395
4126,8458341.339612136
4162,14199365.105798258
4222,0.0
4235,0.0
4350,0.0
4471,0.0
2,1, 1, 1, 0, 4, 0.00,60.00,Holiday
11,66394423.15311402
47,24156278.99999996
71,4835078.999999999
346,19321199.999999968
993,18722069.99999997
1017,18722069.99999997
1497,1293004.7342478838
1533,0.0
1557,0.0
2228,858367.7077036786
2366,1293004.7342478838
4114,22657706.445410395
4126,8458341.339612136
4162,14199365.105798258
4222,0.0
4235,0.0
4350,0.0
4471,0.0
2,1, 1, 1, 0, 5, 0.00,60.00,Holiday
11,66331882.295877669
47,24156278.99999996
71,4835078.999999999
346,19321199.999999968
993,18722069.99999997
1017,18722069.99999997
1497,1034036.6971378413
1533,0.0
1557,0.0
2228,795826.8504673238
2366,1034036.6971378413
4114,22657706.445410395
4126,8458341.339612136
4162,14199365.105798258
4222,0.0
4235,0.0
4350,0.0
4471,0.0
2,1, 1, 1, 0, 6, 0.00,60.00,Holiday
11,126356677.57418636
47,52754678.99999992
71,4835078.999999999
346,47919599.99999992
993,47320469.999999929
1017,47320469.999999929
1497,62205916.99607305
1533,0.0
1557,0.0
2228,1591661.5498025348
2366,1040447.242878251
4114,24689867.024383878
4126,10490501.918585619
4162,14199365.105798258
4222,61165469.753194797
4235,0.0
4350,0.0
4471,0.0
2,1, 1, 1, 0, 7, 0.00,60.00,Holiday
11,175712987.6405678
47,74193748.79176516
71,4825348.791765277
346,69368399.9999999
993,68769269.9999999
1017,68769269.9999999
1497,243920566.05052013
1533,28597212.921243654
1557,28597212.921243654
2228,1579676.7893673834
2366,1039291.4594717941
4114,31170292.059435414
4126,10490501.91858562
4162,14199365.10579826
4222,214284061.66980467
4235,0.0
4350,0.0
4471,0.0
2,1, 1, 1, 0, 8, 0.00,60.00,Holiday
11,171759463.23996485
47,73951398.6956239
71,4582998.695624028
346,69368399.9999999
993,68769269.9999999
1017,68769269.9999999
1497,155927279.6172325
1533,28597212.921243654
1557,28597212.921243654
2228,1666000.8117955647
2366,1317206.4649924588
4114,27372793.732545448
4126,10490501.918585619
4162,14199365.105798258
4222,126012860.23099637
4235,0.0
4350,0.0
4471,0.0
2,1, 1, 1, 0, 9, 0.00,60.00,Holiday
11,187446744.35883675
47,77197103.23652895
71,7828703.236529075
346,69368399.9999999
993,72641339.99999988
1017,72641339.99999988
1497,383458385.9769227
1533,0.0
1557,0.0
2228,2500972.5057344117
2366,1329403.4062202986
4114,34567730.02470418
4126,19200413.979631939
4162,14199365.105798258
4222,382128982.5707023
4235,58507.37659128374
4350,0.0
4471,481091.2152780144
2,1, 1, 1, 0,10, 0.00,60.00,Holiday
11,183760412.7920939
47,77200419.52074296
71,7832019.520743076
346,69368399.9999999
993,72641339.99999988
1017,72641339.99999988
1497,290099772.35225626
1533,0.0
1557,0.0
2228,2541276.317910049
2366,1341844.6048290628
4114,31111666.083872335
4126,16519577.605455207
4162,14199365.105798258
4222,288757927.7474272
4235,39809.327959665774
4350,0.0
4471,225901.5416090107
2,1, 1, 1, 0,11, 0.00,60.00,Holiday
11,186140617.0441251
47,75873593.503455
71,27953993.50345505
346,47919599.99999992
993,74424959.99999996
1017,74424959.99999996
1497,165252599.1669276
1533,0.0
1557,0.0
2228,4817804.842083991
2366,2021727.7251957027
4114,30805648.994070278
4126,16519577.605455207
4162,14199365.105798258
4222,163230871.44173194
4235,18365.482500504007
4350,0.0
4471,200244.22201545817
2,1, 1, 1, 0,12, 0.00,60.00,Holiday
11,187551076.54722495
47,75813020.98436561
71,27893420.984365647
346,47919599.99999992
993,74424959.99999996
1017,74424959.99999996
1497,122586161.27533034
1533,11438885.168497468
1557,11438885.168497468
2228,5889513.330098325
2366,2051523.4946184464
4114,30802221.373248239
4126,16519577.605455207
4162,14199365.105798258
4222,109095752.6122144
4235,10591.260753185623
4350,412502.10898167858
4471,198267.4897780078
2,1, 1, 1, 0,13, 0.00,60.00,Holiday
11,216591194.0370237
47,86044682.39859878
71,38125082.398598808
346,47919599.99999992
993,89913239.99999997
1017,89913239.99999997
1497,69301249.96641295
1533,11438885.168497468
1557,11438885.168497468
2228,7208434.913076881
2366,2406583.1581911079
4114,30900425.234972728
4126,16519577.605455207
4162,14199365.105798258
4222,55455781.63972437
4235,1976.6220448966847
4350,2323703.8048921658
4471,198731.06343833795
2,1, 1, 1, 0,14, 0.00,60.00,Holiday
11,219371488.50508098
47,85698193.93229915
71,37778593.93229918
346,47919599.99999992
993,89913239.99999997
1017,89913239.99999997
1497,54408814.86516171
1533,0.0
1557,0.0
2228,6178589.257185565
2366,2120199.309124291
4114,31459942.54007107
4126,16519577.605455207
4162,14199365.105798258
4222,52288615.556037429
4235,1588.2503673169925
4350,5921136.560039765
4471,198797.96511817358
2,1, 1, 1, 0,15, 0.00,60.00,Holiday
11,221735643.2005091
47,85939377.95414353
71,38019777.954143557
346,47919599.99999992
993,89913239.99999997
1017,89913239.99999997
1497,53397290.27166444
1533,0.0
1557,0.0
2228,6345989.16013282
2366,2381703.0653310187
4114,31707858.113926859
4126,16532468.400030777
4162,14199365.105798258
4222,51015587.20633342
4235,1483.8130763559294
4350,7628878.852360142
4471,198815.30686953316
2,1, 1, 1, 0,16, 0.00,60.00,Holiday
11,224521619.56794823
47,86209858.1036853
71,38290258.10368533
346,47919599.99999992
993,89913239.99999997
1017,89913239.99999997
1497,49506965.68248766
1533,0.0
1557,0.0
2228,6847873.192054539
2366,2085029.4657157239
4114,31756255.983505899
4126,16562791.21444162
4162,14199365.105798258
4222,47421936.21677194
4235,1436.4894980610489
4350,9594133.081874937
4471,198822.71732960136
2,1, 1, 1, 0,17, 0.00,60.00,Holiday
11,223986912.69479019
47,89244305.65458578
71,41324705.65458581
346,47919599.99999992
993,89913239.99999997
1017,89913239.99999997
1497,78218933.35997492
1533,28597212.921243654
1557,28597212.921243654
2228,6559982.259213531
2366,2408335.0707447726
4114,31266501.4827489
4126,16571488.563513365
4162,14199365.105798258
4222,47213385.3679865
4235,1399.5892405171344
4350,6802654.840834384
4471,198828.86816714813
2,1, 1, 1, 0,18, 0.00,60.00,Holiday
11,193423555.61032103
47,78647111.99999994
71,30727511.99999999
346,47919599.99999992
993,74424959.99999996
1017,74424959.99999996
1497,93164908.56416482
1533,28597212.921243654
1557,28597212.921243654
2228,6755921.261248669
2366,2074275.2681673156
4114,30748537.241649704
4126,16519577.605455207
4162,14199365.105798258
4222,62493420.37475385
4235,3558.3790882932419
4350,2644989.505289779
4471,198477.22304473225
2,1, 1, 1, 0,19, 0.00,60.00,Holiday
11,243261944.47936965
47,106749035.99999982
71,15931835.999999995
346,90817199.99999984
993,101834279.99999984
1017,101834279.99999984
1497,96419252.77339095
1533,28597212.921243654
1557,28597212.921243654
2228,4647420.8231956339
2366,1880357.0750335528
4114,28798557.738888958
4126,14487417.026481722
4162,14199365.105798258
4222,65941682.77711375
4235,11806.227146884547
4350,1022474.3836733521
4471,198369.3064650481
2,1, 1, 1, 0,20, 0.00,60.00,Holiday
11,274217081.99842688
47,124250678.9999998
71,4835078.999999999
346,119415599.9999998
993,118816469.99999982
1017,118816469.99999982
1497,1817350.2061988535
1533,0.0
1557,0.0
2228,4730639.781503714
2366,1817350.2061988535
4114,23289898.55782245
4126,8458341.339612136
4162,14199365.105798258
4222,0.0
4235,0.0
4350,3129394.659100953
4471,0.0
2,1, 1, 1, 0,21, 0.00,60.00,Holiday
11,304281332.36056426
47,138549878.9999998
71,4835078.999999999
346,133714799.99999979
993,133115669.99999979
1017,133115669.99999979
1497,1665117.3329109254
1533,0.0
1557,0.0
2228,3590907.157203226
2366,1665117.3329109254
4114,23728214.073715636
4126,8458341.339612136
4162,14199365.105798258
4222,0.0
4235,0.0
4350,5296662.129645696
4471,0.0
2,1, 1, 1, 0,22, 0.00,60.00,Holiday
11,272902618.6164029
47,124250678.9999998
71,4835078.999999999
346,119415599.9999998
993,118816469.99999982
1017,118816469.99999982
1497,1635811.239219346
1533,0.0
1557,0.0
2228,3444161.176769876
2366,1635811.239219346
4114,23285744.75188706
4126,8458341.339612136
4162,14199365.105798258
4222,0.0
4235,0.0
4350,3105563.6877462707
4471,0.0
2,1, 1, 1, 0,23, 0.00,60.00,Holiday
11,210950801.09979613
47,95652278.99999984
71,4835078.999999999
346,90817199.99999984
993,90218069.99999985
1017,90218069.99999985
1497,1053492.562560464
1533,0.0
1557,0.0
2228,1641167.6175591932
2366,1053492.562560464
4114,22789231.45193287
4126,8458341.339612136
4162,14199365.105798258
4222,0.0
4235,0.0
4350,650053.0303043103
4471,0.0
2,1, 1, 1, 0,24, 0.00,60.00,Holiday
11,124324524.61335334
47,52754678.99999992
71,4835078.999999999
346,47919599.99999992
993,47320469.999999929
1017,47320469.999999929
1497,1289051.1145451049
1533,0.0
1557,0.0
2228,1591669.1679430023
2366,1289051.1145451049
4114,22657706.445410395
4126,8458341.339612136
4162,14199365.105798258
4222,0.0
4235,0.0
4350,0.0
4471,0.0
2,2, 1, 2, 0, 1, 0.00,60.00,Friday
11,66320065.077875029
47,24156278.99999996
71,4835078.999999999
346,19321199.999999968
993,18722069.99999997
1017,18722069.99999997
1497,912922.4472045195
1533,0.0
1557,0.0
2228,784009.6324646851
2366,912922.4472045195
4114,22657706.445410395
4126,8458341.339612136
4162,14199365.105798258
4222,0.0
4235,0.0
4350,0.0
4471,0.0
2,2, 1, 2, 0, 2, 0.00,60.00,Friday
11,66325870.18834716
47,24156278.99999996
71,4835078.999999999
346,19321199.999999968
993,18722069.99999997
1017,18722069.99999997
1497,1150160.0305858185
1533,0.0
1557,0.0
2228,789814.7429368221
2366,1150160.0305858185
4114,22657706.445410395
4126,8458341.339612136
4162,14199365.105798258
4222,0.0
4235,0.0
4350,0.0
4471,0.0
2,2, 1, 2, 0, 3, 0.00,60.00,Friday
11,66326017.09227552
47,24156278.99999996
71,4835078.999999999
346,19321199.999999968
993,18722069.99999997
1017,18722069.99999997
1497,1031362.0624734459
1533,0.0
1557,0.0
2228,789961.6468651833
2366,1031362.0624734459
4114,22657706.445410395
4126,8458341.339612136
4162,14199365.105798258
4222,0.0
4235,0.0
4350,0.0
4471,0.0
2,2, 1, 2, 0, 4, 0.00,60.00,Friday
11,66320031.55233743
47,24156278.99999996
71,4835078.999999999
346,19321199.999999968
993,18722069.99999997
1017,18722069.99999997
1497,1026741.027713963
1533,0.0
1557,0.0
2228,783976.106927087
2366,1026741.027713963
4114,22657706.445410395
4126,8458341.339612136
4162,14199365.105798258
4222,0.0
4235,0.0
4350,0.0
4471,0.0
2,2, 1, 2, 0, 5, 0.00,60.00,Friday
11,66320029.46988683
47,24156278.99999996
71,4835078.999999999
346,19321199.999999968
993,18722069.99999997
1017,18722069.99999997
1497,1026696.9647060547
1533,0.0
1557,0.0
2228,783974.0244764942
2366,1026696.9647060547
4114,22657706.445410395
4126,8458341.339612136
4162,14199365.105798258
4222,0.0
4235,0.0
4350,0.0
4471,0.0
2,2, 1, 2, 0, 6, 0.00,60.00,Friday
11,127235999.15186611
47,53890838.99999992
71,5971238.999999999
346,47919599.99999992
993,47871269.999999929
1017,47871269.999999929
1497,62042319.56175886
1533,0.0
1557,0.0
2228,784023.1274822721
2366,1032819.4050462515
4114,24689867.024383878
4126,10490501.918585619
4162,14199365.105798258
4222,61009500.15671261
4235,0.0
4350,0.0
4471,0.0
2,2, 1, 2, 0, 7, 0.00,60.00,Friday
11,188556658.51282037
47,80355554.46765839
71,5965154.467658507
346,74390399.99999988
993,69320069.9999999
1017,69320069.9999999
1497,487918585.5916159
1533,28597212.921243654
1557,28597212.921243654
2228,784086.1069304636
2366,1031113.1894942038
4114,37555273.91875855
4126,19103354.488218998
4162,14199365.105798258
4222,458290259.48087808
4235,59553.6894480497
4350,0.0
4471,482120.330025
2,2, 1, 2, 0, 8, 0.00,60.00,Friday
11,214333208.6286468
47,95271907.565841
71,20881507.565841143
346,74390399.99999988
993,83139479.99999988
1017,83139479.99999988
1497,385437621.8370124
1533,28882321.086319496
1557,28882321.086319496
2228,2562103.632611023
2366,1669806.227067933
4114,33082735.006135379
4126,16519577.605455207
4162,14199365.105798258
4222,354885494.5236251
4235,43849.218459189826
4350,0.0
4471,233133.20560028283
2,2, 1, 2, 0, 9, 0.00,60.00,Friday
11,271866032.5390258
47,122658018.6487627
71,48267618.648762848
346,74390399.99999988
993,112981499.99999987
1017,112981499.99999987
1497,207308592.54297097
1533,285108.16507584266
1557,285108.16507584266
2228,4570317.916404224
2366,2137465.6990743807
4114,31426703.230462195
4126,16519577.605455209
4162,14199365.105798258
4222,204886018.67882074
4235,25017.31239004599
4350,0.0
4471,204475.43100668127
2,2, 1, 2, 0,10, 0.00,60.00,Friday
11,327547267.8021934
47,146445347.28437544
71,72054947.28437549
346,74390399.99999988
993,143958059.99999995
1017,143958059.99999995
1497,90721762.10144368
1533,285108.16507584266
1557,285108.16507584266
2228,5950471.111567057
2366,2820867.0936282055
4114,30939139.256924184
4126,16583235.099210229
4162,14199365.105798258
4222,87615786.84273961
4235,10844.836781815384
4350,44942.68047874624
4471,198462.63206622218
2,2, 1, 2, 0,11, 0.00,60.00,Friday
11,287537666.2989174
47,124569661.80468606
71,71628061.80468606
346,52941599.9999999
993,122509259.99999996
1017,122509259.99999996
1497,29138269.195957148
1533,513194.69713651677
1557,513194.69713651677
2228,7587206.77170505
2366,3017287.229421528
4114,31221968.26757992
4126,16719809.428134779
4162,14199365.105798258
4222,25607787.269399104
4235,3513.546901274134
4350,1447536.2794277436
4471,198519.6286175098
2,2, 1, 2, 0,12, 0.00,60.00,Friday
11,298357209.5549937
47,124415840.25108058
71,71474240.2510806
346,52941599.9999999
993,122509259.99999996
1017,122509259.99999996
1497,19143898.394662829
1533,11952079.865633984
1557,11952079.865633984
2228,10389593.124748337
2366,3787372.1493522149
4114,32159808.541711127
4126,17015762.660721367
4162,14199365.105798258
4222,3404446.3796766318
4235,609.5335389560456
4350,8683085.002316518
4471,199013.10159834039
2,2, 1, 2, 0,13, 0.00,60.00,Friday
11,304184198.5989015
47,124786763.69087944
71,71845163.69087947
346,52941599.9999999
993,122509259.99999996
1017,122509259.99999996
1497,18994356.90662468
1533,11952079.865633984
1557,11952079.865633984
2228,11998597.130177336
2366,4039266.406828241
4114,32654066.884392218
4126,17485614.39465987
4162,14199365.105798258
4222,3003010.6341624555
4235,537.6603110246497
4350,12035945.502408322
4471,199027.73073325912
2,2, 1, 2, 0,14, 0.00,60.00,Friday
11,307499969.6604285
47,126019477.03151682
71,73077877.03151685
346,52941599.9999999
993,122509259.99999996
1017,122509259.99999996
1497,7376836.38310369
1533,513194.69713651677
1557,513194.69713651677
2228,11386862.703537789
2366,4159323.16553466
4114,32726465.21779717
4126,17874408.68198492
4162,14199365.105798258
4222,2704318.520432513
4235,484.1823469636129
4350,14658381.666028373
4471,199038.8592014533
2,2, 1, 2, 0,15, 0.00,60.00,Friday
11,304475704.01852408
47,127408889.05549127
71,74467289.05549129
346,52941599.9999999
993,122509259.99999996
1017,122509259.99999996
1497,6272376.546377486
1533,427662.2476137639
1557,427662.2476137639
2228,9428993.005081209
2366,3329862.6328326326
4114,32731070.21088285
4126,18205502.697028206
4162,14199365.105798258
4222,2514851.66593109
4235,450.26012012857259
4350,12197995.563555617
4471,199045.9233931567
2,2, 1, 2, 0,16, 0.00,60.00,Friday
11,299029984.9708439
47,129831650.30527154
71,76890050.30527157
346,52941599.9999999
993,122509259.99999996
1017,122509259.99999996
1497,5595415.945869377
1533,427662.2476137639
1557,427662.2476137639
2228,8030105.055278733
2366,3041823.159684999
4114,33012591.483358437
4126,18787743.826067505
4162,14199365.105798258
4222,2125930.5385706138
4235,380.62751479515478
4350,5446936.1593184969
4471,199061.3401020408
2,2, 1, 2, 0,17, 0.00,60.00,Friday
11,297239190.7701397
47,130541137.80124493
71,77599537.80124496
346,52941599.9999999
993,122509259.99999996
1017,122509259.99999996
1497,34858290.520620238
1533,29024875.168857416
1557,29024875.168857416
2228,8676887.797111033
2366,3396288.5359800069
4114,32780345.83628074
4126,18580980.73048248
4162,14199365.105798258
4222,2437126.815782814
4235,436.34422964531378
4350,2532074.717215567
4471,199048.27405788916
2,2, 1, 2, 0,18, 0.00,60.00,Friday
11,282797050.3963165
47,123776342.99999996
71,70834742.99999997
346,52941599.9999999
993,118102859.99999997
1017,118102859.99999997
1497,51747943.83425002
1533,29024875.168857416
1557,29024875.168857416
2228,8555069.205083814
2366,3110561.5103457497
4114,32163197.839807437
4126,17963832.734009185
4162,14199365.105798258
4222,19612507.155046856
4235,560.8399782912087
4350,0.0
4471,199019.51144709785
2,2, 1, 2, 0,19, 0.00,60.00,Friday
11,318003792.7130885
47,143344268.99999986
71,47505068.99999999
346,95839199.99999984
993,135564839.99999989
1017,135564839.99999989
1497,65150510.3324537
1533,28597212.921243654
1557,28597212.921243654
2228,7660854.375155183
2366,2589306.848818893
4114,31007517.921671954
4126,16762269.922352922
4162,14199365.105798258
4222,33963990.56239116
4235,826.9023068139286
4350,226525.64126013276
4471,198958.87269470597
2,2, 1, 2, 0,20, 0.00,60.00,Friday
11,375631834.7577673
47,171942668.99999974
71,47505068.99999999
346,124437599.9999998
993,164163239.99999974
1017,164163239.99999974
1497,45547228.587668199
1533,0.0
1557,0.0
2228,6680045.005155933
2366,2431766.0612335449
4114,31111579.18203882
4126,16601438.839178227
4162,14199365.105798258
4222,43115462.52643465
4235,1523.9813938876469
4350,1533962.8977250097
4471,198814.69145404956
2,2, 1, 2, 0,21, 0.00,60.00,Friday
11,390822087.59382638
47,180270629.9999997
71,41533829.999999988
346,138736799.9999998
993,169616699.99999974
1017,169616699.99999974
1497,61699079.941147867
1533,0.0
1557,0.0
2228,6390536.400739212
2366,2429474.1954027635
4114,31342183.22568769
4126,16534867.664976849
4162,14199365.105798258
4222,59269605.74574509
4235,3318.0309104958398
4350,3000205.6745718044
4471,198514.26191756023
2,2, 1, 2, 0,22, 0.00,60.00,Friday
11,307310173.37515237
47,143777915.9999998
71,19340315.999999998
346,124437599.9999998
993,132085079.9999998
1017,132085079.9999998
1497,42597745.37392967
1533,0.0
1557,0.0
2228,3653797.4890070229
2366,1696099.5059562289
4114,25212812.66002299
4126,10490501.918585619
4162,14199365.105798258
4222,40901645.86797344
4235,0.0
4350,2580567.22612268
4471,0.0
2,2, 1, 2, 0,23, 0.00,60.00,Friday
11,216106956.65169604
47,96788438.99999984
71,5971238.999999999
346,90817199.99999984
993,90768869.99999985
1017,90768869.99999985
1497,46257033.574035588
1533,0.0
1557,0.0
2228,2520902.3375581235
2366,1338250.8002079628
4114,24915467.7613035
4126,10490501.918585619
4162,14199365.105798258
4222,44918782.77382763
4235,0.0
4350,1113277.5528346743
4471,0.0
2,2, 1, 2, 0,24, 0.00,60.00,Friday
11,126381103.53838383
47,52754678.99999992
71,4835078.999999999
346,47919599.99999992
993,47320469.999999929
1017,47320469.999999929
1497,48409893.45699215
1533,0.0
1557,0.0
2228,1616087.5139999986
2366,1307572.7526995156
4114,24689867.024383878
4126,10490501.918585619
4162,14199365.105798258
4222,47102320.70429263
4235,0.0
4350,0.0
4471,0.0
2,3, 1, 3, 0, 1, 0.00,60.00,Saturday
11,68017355.149035
47,24156278.99999996
71,4835078.999999999
346,19321199.999999968
993,18722069.99999997
1017,18722069.99999997
1497,1326000.4499607264
1533,0.0
1557,0.0
2228,2481299.7036246715
2366,1326000.4499607264
4114,22657706.445410395
4126,8458341.339612136
4162,14199365.105798258
4222,0.0
4235,0.0
4350,0.0
4471,0.0
2,3, 1, 3, 0, 2, 0.00,60.00,Saturday
11,67177485.57597572
47,24156278.99999996
71,4835078.999999999
346,19321199.999999968
993,18722069.99999997
1017,18722069.99999997
1497,1055505.2700157753
1533,0.0
1557,0.0
2228,1641430.130565387
2366,1055505.2700157753
4114,22657706.445410395
4126,8458341.339612136
4162,14199365.105798258
4222,0.0
4235,0.0
4350,0.0
4471,0.0
2,3, 1, 3, 0, 3, 0.00,60.00,Saturday
11,67152358.57676494
47,24156278.99999996
71,4835078.999999999
346,19321199.999999968
993,18722069.99999997
1017,18722069.99999997
1497,1307532.8570762375
1533,0.0
1557,0.0
2228,1616303.1313546035
2366,1307532.8570762375
4114,22657706.445410395
4126,8458341.339612136
4162,14199365.105798258
4222,0.0
4235,0.0
4350,0.0
4471,0.0
2,3, 1, 3, 0, 4, 0.00,60.00,Saturday
11,66331828.05736684
47,24156278.99999996
71,4835078.999999999
346,19321199.999999968
993,18722069.99999997
1017,18722069.99999997
1497,1036289.601541249
1533,0.0
1557,0.0
2228,795772.6119565001
2366,1036289.601541249
4114,22657706.445410395
4126,8458341.339612136
4162,14199365.105798258
4222,0.0
4235,0.0
4350,0.0
4471,0.0
2,3, 1, 3, 0, 5, 0.00,60.00,Saturday
11,67127770.97721192
47,24156278.99999996
71,4835078.999999999
346,19321199.999999968
993,18722069.99999997
1017,18722069.99999997
1497,1036498.5125963063
1533,0.0
1557,0.0
2228,1591715.531801579
2366,1036498.5125963063
4114,22657706.445410395
4126,8458341.339612136
4162,14199365.105798258
4222,0.0
4235,0.0
4350,0.0
4471,0.0
2,3, 1, 3, 0, 6, 0.00,60.00,Saturday
11,125561011.39907448
47,52754678.99999992
71,4835078.999999999
346,47919599.99999992
993,47320469.999999929
1017,47320469.999999929
1497,59923045.01502998
1533,0.0
1557,0.0
2228,795995.3746906478
2366,1303559.3885788695
4114,24689867.024383878
4126,10490501.918585619
4162,14199365.105798258
4222,58619485.62645112
4235,0.0
4350,0.0
4471,0.0
2,3, 1, 3, 0, 7, 0.00,60.00,Saturday
11,183988037.20435608
47,80352823.9553328
71,5962423.955332918
346,74390399.99999988
993,69320069.9999999
1017,69320069.9999999
1497,268468949.2693494
1533,28597212.921243654
1557,28597212.921243654
2228,1604073.2264107818
2366,1045253.892112605
4114,32378013.819444874
4126,18005027.386357085
4162,14199365.105798258
4222,238826482.45599319
4235,33744.697321607135
4350,0.0
4471,299311.50584611037
2,3, 1, 3, 0, 8, 0.00,60.00,Saturday
11,191338332.570753
47,83579619.65336955
71,9189219.653369673
346,74390399.99999988
993,73192139.99999988
1017,73192139.99999988
1497,253488486.02763767
1533,28597212.921243654
1557,28597212.921243654
2228,3560884.6446590905
2366,1682225.103050842
4114,30768095.933304084
4126,16519780.224761207
4162,14199365.105798258
4222,223209048.0033432
4235,29206.12713989477
4350,0.0
4471,208386.2122804769
2,3, 1, 3, 0, 9, 0.00,60.00,Saturday
11,228220607.10200117
47,101466330.60550763
71,27075930.605507759
346,74390399.99999988
993,90883619.99999987
1017,90883619.99999987
1497,153976176.6215225
1533,285108.16507584266
1557,285108.16507584266
2228,4607959.776834959
2366,2019871.185336384
4114,30781914.70063037
4126,16519577.605455209
4162,14199365.105798258
4222,151671197.27111025
4235,18319.588358227767
4350,262497.140434413
4471,199965.2902356668
2,3, 1, 3, 0,10, 0.00,60.00,Saturday
11,272947605.15236398
47,118443660.81700571
71,44053260.81700584
346,74390399.99999988
993,114116039.99999988
1017,114116039.99999988
1497,71642874.18273637
1533,285108.16507584266
1557,285108.16507584266
2228,4733911.302149961
2366,2142506.5840498309
4114,31552464.14286608
4126,16563959.07295313
4162,14199365.105798258
4222,69215259.4336107
4235,5996.720631743636
4350,3897287.5821000605
4471,198244.5876104974
2,3, 1, 3, 0,11, 0.00,60.00,Saturday
11,279142902.4746356
47,117146722.40721673
71,64205122.40721676
346,52941599.9999999
993,115899659.99999997
1017,115899659.99999997
1497,51635639.307830799
1533,513194.69713651677
1557,513194.69713651677
2228,7743154.327350657
2366,2816746.5003262397
4114,32155457.297275634
4126,16742588.983136222
4162,14199365.105798258
4222,48305698.11036804
4235,3713.6341165020805
4350,5995712.231404537
4471,198482.5772716697
2,3, 1, 3, 0,12, 0.00,60.00,Saturday
11,286227852.05500236
47,117568510.09124527
71,64626910.09124528
346,52941599.9999999
993,115899659.99999997
1017,115899659.99999997
1497,47284909.85235298
1533,11952079.865633984
1557,11952079.865633984
2228,10060351.99679628
2366,3173016.3591967148
4114,33293708.2024137
4126,17231227.584293374
4162,14199365.105798258
4222,32159813.62752228
4235,2031.1689906018967
4350,9204832.101891267
4471,198758.49366529796
2,3, 1, 3, 0,13, 0.00,60.00,Saturday
11,285514645.6522131
47,114277699.91164036
71,61336099.91164037
346,52941599.9999999
993,114247259.99999997
1017,114247259.99999997
1497,42957098.70152738
1533,11952079.865633984
1557,11952079.865633984
2228,11368204.120620039
2366,3510060.589656922
4114,34335459.55345264
4126,17892788.5200243
4162,14199365.105798258
4222,27494958.246236478
4235,465.88263087881639
4350,11086508.999179084
4471,199047.18469030219
2,3, 1, 3, 0,14, 0.00,60.00,Saturday
11,285844608.74111846
47,114316477.8160921
71,61374877.81609212
346,52941599.9999999
993,114247259.99999997
1017,114247259.99999997
1497,28956785.265329184
1533,513194.69713651677
1557,513194.69713651677
2228,11231554.487655446
2366,3504367.7828321706
4114,34968010.147295068
4126,18567829.964993948
4162,14199365.105798258
4222,24939222.785360494
4235,410.12613618820867
4350,10881837.584506097
4471,199058.57943371504
2,3, 1, 3, 0,15, 0.00,60.00,Saturday
11,284149584.83518829
47,113545335.07800968
71,60603735.078009698
346,52941599.9999999
993,114247259.99999997
1017,114247259.99999997
1497,28960042.755562314
1533,427662.2476137639
1557,427662.2476137639
2228,8956838.277732797
2366,2867540.241326427
4114,35679723.66857679
4126,19152030.222382737
4162,14199365.105798258
4222,25664840.266622127
4235,367.7776271683863
4350,11520992.675652877
4471,199067.3575889354
2,3, 1, 3, 0,16, 0.00,60.00,Saturday
11,284019839.563886
47,113330235.48523027
71,60388635.48523028
346,52941599.9999999
993,114247259.99999997
1017,114247259.99999997
1497,28211942.694894088
1533,427662.2476137639
1557,427662.2476137639
2228,8649659.661057044
2366,2771537.5113680835
4114,36055994.43708042
4126,19526279.377766175
4162,14199365.105798258
4222,25012742.935912238
4235,348.36186150493168
4350,11537270.382027599
4471,199071.23662927358
2,3, 1, 3, 0,17, 0.00,60.00,Saturday
11,281279142.0951785
47,117559010.33001672
71,64617410.330016728
346,52941599.9999999
993,114247259.99999997
1017,114247259.99999997
1497,62340516.26452922
1533,29024875.168857416
1557,29024875.168857416
2228,9235010.545868198
2366,2932222.8166227608
4114,34810441.705075848
4126,19555486.212591638
4162,14199365.105798258
4222,30383418.279049048
4235,356.0224673989304
4350,5227994.355814839
4471,199069.13593568124
2,3, 1, 3, 0,18, 0.00,60.00,Saturday
11,266263565.78726764
47,111937382.99999996
71,64017782.99999998
346,47919599.99999992
993,113145659.99999997
1017,113145659.99999997
1497,74166800.10040069
1533,28597212.921243654
1557,28597212.921243654
2228,7990734.3946640579
2366,2618538.1456318378
4114,32879830.439034814
4126,18658170.31360501
4162,14199365.105798258
4222,42951049.03352519
4235,481.77781948074428
4350,110435.531635371
4471,199040.64411407026
2,3, 1, 3, 0,19, 0.00,60.00,Saturday
11,294080837.87779429
47,128942549.99999987
71,38125349.999999988
346,90817199.99999984
993,125066699.99999988
1017,125066699.99999988
1497,106749384.36724389
1533,28597212.921243654
1557,28597212.921243654
2228,8514016.856714318
2366,2763486.3604403354
4114,30842132.71382853
4126,16539424.385513995
4162,14199365.105798258
4222,75388685.0855599
4235,5214.864881458201
4350,511917.74968777256
4471,198305.6926824177
2,3, 1, 3, 0,20, 0.00,60.00,Saturday
11,319217886.65020856
47,142745273.9999998
71,23329673.999999994
346,119415599.9999998
993,138176819.9999998
1017,138176819.9999998
1497,36662726.66140421
1533,0.0
1557,0.0
2228,6568306.395562258
2366,2110476.5554814257
4114,29163241.885182445
4126,14487417.026481722
4162,14199365.105798258
4222,34552250.10592277
4235,6186.2496679880009
4350,2359831.202201081
4471,198226.9175951311
2,3, 1, 3, 0,21, 0.00,60.00,Saturday
11,349520371.4945561
47,157044473.99999977
71,23329673.999999994
346,133714799.99999979
993,152476019.99999977
1017,152476019.99999977
1497,47114993.43666124
1533,0.0
1557,0.0
2228,5781887.839734791
2366,2035175.732094309
4114,29581394.112441839
4126,14487417.026481722
4162,14199365.105798258
4222,45079817.70456693
4235,8071.109882943148
4350,4430349.879352196
4471,198174.55314472778