Program Version,EnergyPlus, Version 9.0.1-bb7ca4f0da, YMD=2019.12.18 09:56
1,5,Environment Title[],Latitude[deg],Longitude[deg],Time Zone[],Elevation[m]
2,8,Day of Simulation[],Month[],Day of Month[],DST Indicator[1=yes 0=no],Hour[],StartMinute[],EndMinute[],DayType
3,5,Cumulative Day of Simulation[],Month[],Day of Month[],DST Indicator[1=yes 0=no],DayType  ! When Daily Meters Requested
4,2,Cumulative Days of Simulation[],Month[]  ! When Monthly Meters Requested
5,1,Cumulative Days of Simulation[] ! When Run Period Meters Requested
6,1,Calendar Year of Simulation[] ! When Annual Meters Requested
1532,1,InteriorEquipment:Gas [J] !Hourly
2365,1,WaterSystems:Gas [J] !Hourly
1496,1,Gas:Facility [J] !Hourly
1556,1,Receptacle:InteriorEquipment:Gas [J] !Hourly
70,1,ComplianceLtg:InteriorLights:Electricity [J] !Hourly
10,1,Electricity:Facility [J] !Hourly
46,1,InteriorLights:Electricity [J] !Hourly
992,1,InteriorEquipment:Electricity [J] !Hourly
4113,1,Fans:Electricity [J] !Hourly
4617,1,Pumps:Electricity [J] !Hourly
4233,1,Heating:Electricity [J] !Hourly
4419,1,Cooling:Electricity [J] !Hourly
2227,1,WaterSystems:Electricity [J] !Hourly
4307,1,Heating:Gas [J] !Hourly
1016,1,Receptacle:InteriorEquipment:Electricity [J] !Hourly
345,1,NonComplianceLtg:InteriorLights:Electricity [J] !Hourly
4125,1,General:Fans:Electricity [J] !Hourly
4161,1,ProcessMotors:Fans:Electricity [J] !Hourly
End of Data Dictionary
1,SANTA-MARIA-PUBLIC-ARPT ANN CLG 0.4% CONDNS DB=>MCWB,  34.92,-120.47,  -8.00,  77.00
2,1, 8,21, 0, 1, 0.00,60.00,SummerDesignDay
10,623703212.2504374
46,249737579.99999974
70,96701579.99999997
345,153035999.9999997
992,231449399.99999977
1016,231449399.99999977
1496,64483760.155116338
1532,57764642.17263899
1556,57764642.17263899
2227,19754542.20446963
2365,6719117.982477339
4113,24961989.131049634
4125,16558947.831269589
4161,0.0
4233,0.0
4307,0.0
4419,97799700.9149184
4617,0.0
2,1, 8,21, 0, 2, 0.00,60.00,SummerDesignDay
10,622534694.1707921
46,249737579.99999974
70,96701579.99999997
345,153035999.9999997
992,231449399.99999977
1016,231449399.99999977
1496,64484194.797455269
1532,57764642.17263899
1556,57764642.17263899
2227,19754854.128509508
2365,6719552.624816277
4113,24855702.335669124
4125,16827064.36524774
4161,0.0
4233,0.0
4307,0.0
4419,96737157.70661389
4617,0.0
2,1, 8,21, 0, 3, 0.00,60.00,SummerDesignDay
10,621284121.0520374
46,249737579.99999974
70,96701579.99999997
345,153035999.9999997
992,231449399.99999977
1016,231449399.99999977
1496,64710722.786902938
1532,57764642.17263899
1556,57764642.17263899
2227,20719885.77885543
2365,6946080.614263939
4113,24752263.3095477
4125,16991890.89317994
4161,0.0
4233,0.0
4307,0.0
4419,94624991.96363452
4617,0.0
2,1, 8,21, 0, 4, 0.00,60.00,SummerDesignDay
10,617920453.1178734
46,249737579.99999974
70,96701579.99999997
345,153035999.9999997
992,231449399.99999977
1016,231449399.99999977
1496,64583362.0193278
1532,57764642.17263899
1556,57764642.17263899
2227,19754293.298034517
2365,6818719.846688814
4113,24628027.48787546
4125,17101829.73523051
4161,0.0
4233,0.0
4307,0.0
4419,92351152.33196363
4617,0.0
2,1, 8,21, 0, 5, 0.00,60.00,SummerDesignDay
10,615978406.2211754
46,249737579.99999974
70,96701579.99999997
345,153035999.9999997
992,231449399.99999977
1016,231449399.99999977
1496,64484017.56591451
1532,57764642.17263899
1556,57764642.17263899
2227,19969023.400083554
2365,6719375.39327552
4113,24498226.381929809
4125,17172818.345662849
4161,0.0
4233,0.0
4307,0.0
4419,90324176.43916233
4617,0.0
2,1, 8,21, 0, 6, 0.00,60.00,SummerDesignDay
10,638902910.6727386
46,249737579.99999974
70,96701579.99999997
345,153035999.9999997
992,231449399.99999977
1016,231449399.99999977
1496,64611237.3683041
1532,57764642.17263899
1556,57764642.17263899
2227,20506616.501368587
2365,6846595.1956651159
4113,24790491.316228857
4125,17256975.86279974
4161,0.0
4233,0.0
4307,0.0
4419,112418822.85514139
4617,0.0
2,1, 8,21, 0, 7, 0.00,60.00,SummerDesignDay
10,742598214.0626167
46,249737579.99999974
70,96701579.99999997
345,153035999.9999997
992,231449399.99999977
1016,231449399.99999977
1496,64684330.86903578
1532,57764642.17263899
1556,57764642.17263899
2227,19755397.65030806
2365,6919688.696396792
4113,66279545.94876615
4125,56577890.713367339
4161,0.0
4233,0.0
4307,0.0
4419,175376290.46354274
4617,0.0
2,1, 8,21, 0, 8, 0.00,60.00,SummerDesignDay
10,747448127.7260866
46,249737579.99999974
70,96701579.99999997
345,153035999.9999997
992,231449399.99999977
1016,231449399.99999977
1496,64483890.96122306
1532,57764642.17263899
1556,57764642.17263899
2227,20421032.817777985
2365,6719248.78858407
4113,61364765.645630087
4125,49516203.42327178
4161,0.0
4233,0.0
4307,0.0
4419,184475349.26267875
4617,0.0
2,1, 8,21, 0, 9, 0.00,60.00,SummerDesignDay
10,774720891.915605
46,249737579.99999974
70,96701579.99999997
345,153035999.9999997
992,231449399.99999977
1016,231449399.99999977
1496,64510307.711444217
1532,57764642.17263899
1556,57764642.17263899
2227,20053432.00259627
2365,6745665.538805222
4113,56685557.52243329
4125,42589315.12103675
4161,0.0
4233,0.0
4307,0.0
4419,216794922.39057566
4617,0.0
2,1, 8,21, 0,10, 0.00,60.00,SummerDesignDay
10,802573602.3576491
46,249737579.99999974
70,96701579.99999997
345,153035999.9999997
992,231449399.99999977
1016,231449399.99999977
1496,64784152.09282246
1532,57764642.17263899
1556,57764642.17263899
2227,19754683.928880127
2365,7019509.920183464
4113,55400798.35912053
4125,39667752.57338622
4161,0.0
4233,0.0
4307,0.0
4419,246231140.0696488
4617,0.0
2,1, 8,21, 0,11, 0.00,60.00,SummerDesignDay
10,821967228.3944097
46,249737579.99999974
70,96701579.99999997
345,153035999.9999997
992,231449399.99999977
1016,231449399.99999977
1496,64483744.040677819
1532,57764642.17263899
1556,57764642.17263899
2227,20719801.08033011
2365,6719101.86803883
4113,54202516.281435798
4125,37491130.26513119
4161,0.0
4233,0.0
4307,0.0
4419,265857931.03264404
4617,0.0
2,1, 8,21, 0,12, 0.00,60.00,SummerDesignDay
10,834581968.0143488
46,249737579.99999974
70,96701579.99999997
345,153035999.9999997
992,231449399.99999977
1016,231449399.99999977
1496,64484288.02590273
1532,57764642.17263899
1556,57764642.17263899
2227,19754427.040247855
2365,6719645.853263747
4113,53444834.49167427
4125,36124056.632161159
4161,0.0
4233,0.0
4307,0.0
4419,280195726.482427
4617,0.0
2,1, 8,21, 0,13, 0.00,60.00,SummerDesignDay
10,847697776.446694
46,249737579.99999974
70,96701579.99999997
345,153035999.9999997
992,231449399.99999977
1016,231449399.99999977
1496,64744983.49149254
1532,57764642.17263899
1556,57764642.17263899
2227,19755037.36414083
2365,6980341.318853544
4113,53508373.10768017
4125,35550766.545998129
4161,0.0
4233,0.0
4307,0.0
4419,293247385.97487327
4617,0.0
2,1, 8,21, 0,14, 0.00,60.00,SummerDesignDay
10,864644279.5542238
46,249737579.99999974
70,96701579.99999997
345,153035999.9999997
992,231449399.99999977
1016,231449399.99999977
1496,64549062.38853885
1532,57764642.17263899
1556,57764642.17263899
2227,20720023.730428708
2365,6784420.215899863
4113,54612066.95942078
4125,35708653.11543305
4161,0.0
4233,0.0
4307,0.0
4419,308125208.8643745
4617,0.0
2,1, 8,21, 0,15, 0.00,60.00,SummerDesignDay
10,879555335.4940983
46,249737579.99999974
70,96701579.99999997
345,153035999.9999997
992,231449399.99999977
1016,231449399.99999977
1496,64484046.466637048
1532,57764642.17263899
1556,57764642.17263899
2227,19754316.650471488
2365,6719404.293998057
4113,56425359.12199561
4125,36357059.065505
4161,0.0
4233,0.0
4307,0.0
4419,322188679.7216314
4617,0.0
2,1, 8,21, 0,16, 0.00,60.00,SummerDesignDay
10,882362488.4067271
46,249737579.99999974
70,96701579.99999997
345,153035999.9999997
992,231449399.99999977
1016,231449399.99999977
1496,64645554.6005228
1532,57764642.17263899
1556,57764642.17263899
2227,20123559.861711377
2365,6880912.427883817
4113,57074651.81029582
4125,36487852.03839383
4161,0.0
4233,0.0
4307,0.0
4419,323977296.73472
4617,0.0
2,1, 8,21, 0,17, 0.00,60.00,SummerDesignDay
10,867443743.7582466
46,249737579.99999974
70,96701579.99999997
345,153035999.9999997
992,231449399.99999977
1016,231449399.99999977
1496,64648699.890915159
1532,57764642.17263899
1556,57764642.17263899
2227,20351235.11750956
2365,6884057.718276162
4113,56433688.26907716
4125,36628196.430491197
4161,0.0
4233,0.0
4307,0.0
4419,309471840.37166038
4617,0.0
2,1, 8,21, 0,18, 0.00,60.00,SummerDesignDay
10,841624352.706412
46,249737579.99999974
70,96701579.99999997
345,153035999.9999997
992,231449399.99999977
1016,231449399.99999977
1496,64483984.536514218
1532,57764642.17263899
1556,57764642.17263899
2227,19754751.071842787
2365,6719342.3638752349
4113,54064917.044554438
4125,35519960.519847039
4161,0.0
4233,0.0
4307,0.0
4419,286617704.59001508
4617,0.0
2,1, 8,21, 0,19, 0.00,60.00,SummerDesignDay
10,792722709.177919
46,249737579.99999974
70,96701579.99999997
345,153035999.9999997
992,231449399.99999977
1016,231449399.99999977
1496,64546059.2660999
1532,57764642.17263899
1556,57764642.17263899
2227,20577088.366778044
2365,6781417.093460913
4113,49100518.19540034
4125,33751608.20135601
4161,0.0
4233,0.0
4307,0.0
4419,241858122.61574088
4617,0.0
2,1, 8,21, 0,20, 0.00,60.00,SummerDesignDay
10,753140655.2079225
46,249737579.99999974
70,96701579.99999997
345,153035999.9999997
992,231449399.99999977
1016,231449399.99999977
1496,64748359.39666453
1532,57764642.17263899
1556,57764642.17263899
2227,19897296.17878566
2365,6983717.224025536
4113,45622371.14825563
4125,32811449.41068358
4161,0.0
4233,0.0
4307,0.0
4419,206434007.88088165
4617,0.0
2,1, 8,21, 0,21, 0.00,60.00,SummerDesignDay
10,727869794.8186389
46,249737579.99999974
70,96701579.99999997
345,153035999.9999997
992,231449399.99999977
1016,231449399.99999977
1496,64483752.91336354
1532,57764642.17263899
1556,57764642.17263899
2227,19754742.695340516
2365,6719110.74072455
4113,43825884.06933949
4125,32479218.2234546
4161,0.0
4233,0.0
4307,0.0
4419,183102188.05395938
4617,0.0
2,1, 8,21, 0,22, 0.00,60.00,SummerDesignDay
10,650227056.6072503
46,249737579.99999974
70,96701579.99999997
345,153035999.9999997
992,231449399.99999977
1016,231449399.99999977
1496,64484600.958041939
1532,57764642.17263899
1556,57764642.17263899
2227,20721349.62004275
2365,6719958.785402946
4113,24587135.037761395
4125,14265157.705912214
4161,0.0
4233,0.0
4307,0.0
4419,123731591.94944649
4617,0.0
2,1, 8,21, 0,23, 0.00,60.00,SummerDesignDay
10,651813778.9751575
46,249737579.99999974
70,96701579.99999997
345,153035999.9999997
992,231449399.99999977
1016,231449399.99999977
1496,64781122.91872781
1532,57764642.17263899
1556,57764642.17263899
2227,19754185.023319074
2365,7016480.746088815
4113,25355157.244656214
4125,15800055.166556979
4161,0.0
4233,0.0
4307,0.0
4419,125517456.70718265
4617,0.0
2,1, 8,21, 0,24, 0.00,60.00,SummerDesignDay
10,644866042.9232552
46,249737579.99999974
70,96701579.99999997
345,153035999.9999997
992,231449399.99999977
1016,231449399.99999977
1496,64513014.040318738
1532,57764642.17263899
1556,57764642.17263899
2227,19824606.233794385
2365,6748371.867679741
4113,25156213.720259377
4125,16224818.193464255
4161,0.0
4233,0.0
4307,0.0
4419,118698242.96920167
4617,0.0
1,SANTA-MARIA-PUBLIC-ARPT ANN CLG 0.4% CONDNS DP=>MCDB,  34.92,-120.47,  -8.00,  77.00
2,1, 8,21, 0, 1, 0.00,60.00,SummerDesignDay
10,559527364.2185187
46,249737579.99999974
70,96701579.99999997
345,153035999.9999997
992,231449399.99999977
1016,231449399.99999977
1496,113920467.91497249
1532,57764642.17263899
1556,57764642.17263899
2227,19755117.908028116
2365,6719033.242813609
4113,19605733.02571519
4125,15837693.526716758
4161,0.0
4233,0.0
4307,49436792.499519888
4419,38860685.65324859
4617,118847.63152719144
2,1, 8,21, 0, 2, 0.00,60.00,SummerDesignDay
10,557702132.1472846
46,249737579.99999974
70,96701579.99999997
345,153035999.9999997
992,231449399.99999977
1016,231449399.99999977
1496,123388530.20818953
1532,57764642.17263899
1556,57764642.17263899
2227,19754853.369154399
2365,6719552.978666608
4113,19259725.718208039
4125,15965002.624816653
4161,0.0
4233,0.0
4307,58904335.05688392
4419,37381515.765020739
4617,119057.29490175763
2,1, 8,21, 0, 3, 0.00,60.00,SummerDesignDay
10,556815939.0300317
46,249737579.99999974
70,96701579.99999997
345,153035999.9999997
992,231449399.99999977
1016,231449399.99999977
1496,130742434.99112675
1532,57764642.17263899
1556,57764642.17263899
2227,20719885.246212454
2365,6946218.424128056
4113,19072922.59074808
4125,16078297.77666093
4161,0.0
4233,0.0
4307,66031574.39435971
4419,35716726.247564617
4617,119424.94550681871
2,1, 8,21, 0, 4, 0.00,60.00,SummerDesignDay
10,554318521.1061251
46,249737579.99999974
70,96701579.99999997
345,153035999.9999997
992,231449399.99999977
1016,231449399.99999977
1496,136861318.81851939
1532,57764642.17263899
1556,57764642.17263899
2227,19754293.341160358
2365,6818581.860562526
4113,18933865.67429395
4125,16178066.656374239
4161,0.0
4233,0.0
4307,72278094.78531787
4419,34323437.39458772
4617,119944.69608338864
2,1, 8,21, 0, 5, 0.00,60.00,SummerDesignDay
10,553132447.4709683
46,249737579.99999974
70,96701579.99999997
345,153035999.9999997
992,231449399.99999977
1016,231449399.99999977
1496,141101091.8832911
1532,57764642.17263899
1556,57764642.17263899
2227,19968242.685330623
2365,6719375.317847703
4113,18788448.75998965
4125,16234883.898370928
4161,0.0
4233,0.0
4307,76617074.3928044
4419,33068308.878957489
4617,120467.14669078379
2,1, 8,21, 0, 6, 0.00,60.00,SummerDesignDay
10,572458962.424883
46,249737579.99999974
70,96701579.99999997
345,153035999.9999997
992,231449399.99999977
1016,231449399.99999977
1496,141230291.77419568
1532,57764642.17263899
1556,57764642.17263899
2227,20507400.095756759
2365,6846733.048238051
4113,19011896.791100589
4125,16314036.89825477
4161,0.0
4233,0.0
4307,76618916.55331865
4419,51632109.146482218
4617,120576.39154375468
2,1, 8,21, 0, 7, 0.00,60.00,SummerDesignDay
10,618682946.7648227
46,249737579.99999974
70,96701579.99999997
345,153035999.9999997
992,231449399.99999977
1016,231449399.99999977
1496,64683942.528572369
1532,57764642.17263899
1556,57764642.17263899
2227,19754912.624634576
2365,6919300.355933373
4113,55188455.677548278
4125,50519349.48914501
4161,0.0
4233,0.0
4307,0.0
4419,62552598.462639909
4617,0.0
2,1, 8,21, 0, 8, 0.00,60.00,SummerDesignDay
10,630312905.3059851
46,249737579.99999974
70,96701579.99999997
345,153035999.9999997
992,231449399.99999977
1016,231449399.99999977
1496,64483747.03366369
1532,57764642.17263899
1556,57764642.17263899
2227,20420662.091396236
2365,6719104.8610247
4113,48150326.55069093
4125,41148908.10837157
4161,0.0
4233,0.0
4307,0.0
4419,80554936.6638982
4617,0.0
2,1, 8,21, 0, 9, 0.00,60.00,SummerDesignDay
10,652191441.8082607
46,249737579.99999974
70,96701579.99999997
345,153035999.9999997
992,231449399.99999977
1016,231449399.99999977
1496,64510958.623883988
1532,57764642.17263899
1556,57764642.17263899
2227,20054844.94239083
2365,6746316.451244995
4113,44038615.14069746
4125,34392188.50407425
4161,0.0
4233,0.0
4307,0.0
4419,106911001.72517284
4617,0.0
2,1, 8,21, 0,10, 0.00,60.00,SummerDesignDay
10,701813602.9490109
46,249737579.99999974
70,96701579.99999997
345,153035999.9999997
992,231449399.99999977
1016,231449399.99999977
1496,64783450.74237874
1532,57764642.17263899
1556,57764642.17263899
2227,19754777.362395947
2365,7018808.569739743
4113,43865661.61764836
4125,32155122.435803065
4161,0.0
4233,0.0
4307,0.0
4419,157006183.9689669
4617,0.0
2,1, 8,21, 0,11, 0.00,60.00,SummerDesignDay
10,733128825.8305903
46,249737579.99999974
70,96701579.99999997
345,153035999.9999997
992,231449399.99999977
1016,231449399.99999977
1496,64483743.612877149
1532,57764642.17263899
1556,57764642.17263899
2227,20719801.278807865
2365,6719101.44023815
4113,43591028.20006712
4125,30560512.03392814
4161,0.0
4233,0.0
4307,0.0
4419,187631016.35171569
4617,0.0
2,1, 8,21, 0,12, 0.00,60.00,SummerDesignDay
10,752406056.402619
46,249737579.99999974
70,96701579.99999997
345,153035999.9999997
992,231449399.99999977
1016,231449399.99999977
1496,64484289.89305104
1532,57764642.17263899
1556,57764642.17263899
2227,19754428.47601773
2365,6719647.720412056
4113,43395700.744488719
4125,29557495.38637118
4161,0.0
4233,0.0
4307,0.0
4419,208068947.18211273
4617,0.0
2,1, 8,21, 0,13, 0.00,60.00,SummerDesignDay
10,768471887.2938192
46,249737579.99999974
70,96701579.99999997
345,153035999.9999997
992,231449399.99999977
1016,231449399.99999977
1496,64745632.12823023
1532,57764642.17263899
1556,57764642.17263899
2227,19755034.98168253
2365,6980989.955591239
4113,43672585.91844793
4125,29126610.42051708
4161,0.0
4233,0.0
4307,0.0
4419,223857286.39368908
4617,0.0
2,1, 8,21, 0,14, 0.00,60.00,SummerDesignDay
10,786120748.1408835
46,249737579.99999974
70,96701579.99999997
345,153035999.9999997
992,231449399.99999977
1016,231449399.99999977
1496,64548413.1098639
1532,57764642.17263899
1556,57764642.17263899
2227,20720021.852517256
2365,6783770.937224908
4113,44755217.96305786
4125,29230675.607270793
4161,0.0
4233,0.0
4307,0.0
4419,239458528.32530878
4617,0.0
2,1, 8,21, 0,15, 0.00,60.00,SummerDesignDay
10,800723410.5306124
46,249737579.99999974
70,96701579.99999997
345,153035999.9999997
992,231449399.99999977
1016,231449399.99999977
1496,64484047.753577638
1532,57764642.17263899
1556,57764642.17263899
2227,19754316.044813716
2365,6719405.580938635
4113,46451615.70332975
4125,29717087.8023858
4161,0.0
4233,0.0
4307,0.0
4419,253330498.7824691
4617,0.0
2,1, 8,21, 0,16, 0.00,60.00,SummerDesignDay
10,802344129.9330201
46,249737579.99999974
70,96701579.99999997
345,153035999.9999997
992,231449399.99999977
1016,231449399.99999977
1496,64646201.47474251
1532,57764642.17263899
1556,57764642.17263899
2227,20121853.65858623
2365,6881559.302103522
4113,47094894.17287986
4125,29836227.984715769
4161,0.0
4233,0.0
4307,0.0
4419,253940402.10155449
4617,0.0
2,1, 8,21, 0,17, 0.00,60.00,SummerDesignDay
10,785927670.5495734
46,249737579.99999974
70,96701579.99999997
345,153035999.9999997
992,231449399.99999977
1016,231449399.99999977
1496,64648050.39272089
1532,57764642.17263899
1556,57764642.17263899
2227,20352943.877251727
2365,6883408.220081903
4113,46377910.976955439
4125,29934400.79843258
4161,0.0
4233,0.0
4307,0.0
4419,238009835.69536657
4617,0.0
2,1, 8,21, 0,18, 0.00,60.00,SummerDesignDay
10,759099580.2390132
46,249737579.99999974
70,96701579.99999997
345,153035999.9999997
992,231449399.99999977
1016,231449399.99999977
1496,64483986.3363711
1532,57764642.17263899
1556,57764642.17263899
2227,19754752.12820327
2365,6719344.163732111
4113,44288841.54379775
4125,29129632.549879768
4161,0.0
4233,0.0
4307,0.0
4419,213869006.56701268
4617,0.0
2,1, 8,21, 0,19, 0.00,60.00,SummerDesignDay
10,709338622.344613
46,249737579.99999974
70,96701579.99999997
345,153035999.9999997
992,231449399.99999977
1016,231449399.99999977
1496,64546706.31376304
1532,57764642.17263899
1556,57764642.17263899
2227,20575377.74173764
2365,6782064.141124051
4113,39631319.917200658
4125,27813716.839604416
4161,0.0
4233,0.0
4307,0.0
4419,167944944.68567474
4617,0.0
2,1, 8,21, 0,20, 0.00,60.00,SummerDesignDay
10,661277472.3461297
46,249737579.99999974
70,96701579.99999997
345,153035999.9999997
992,231449399.99999977
1016,231449399.99999977
1496,64747711.703448448
1532,57764642.17263899
1556,57764642.17263899
2227,19899007.333335598
2365,6983069.530809455
4113,36201408.101272169
4125,27060774.780018446
4161,0.0
4233,0.0
4307,0.0
4419,123990076.91152212
4617,0.0
2,1, 8,21, 0,21, 0.00,60.00,SummerDesignDay
10,625186255.4268131
46,249737579.99999974
70,96701579.99999997
345,153035999.9999997
992,231449399.99999977
1016,231449399.99999977
1496,64483754.13501553
1532,57764642.17263899
1556,57764642.17263899
2227,19754741.697108196
2365,6719111.9623765409
4113,34242391.34075403
4125,26747238.583376428
4161,0.0
4233,0.0
4307,0.0
4419,90002142.38895107
4617,0.0
2,1, 8,21, 0,22, 0.00,60.00,SummerDesignDay
10,595910660.7534876
46,249737579.99999974
70,96701579.99999997
345,153035999.9999997
992,231449399.99999977
1016,231449399.99999977
1496,65974087.246265489
1532,57764642.17263899
1556,57764642.17263899
2227,20721403.650248656
2365,6719809.496970615
4113,20096196.330456247
4125,13848385.000111526
4161,0.0
4233,0.0
4307,1489635.5766558769
4419,73863621.1151334
4617,42459.65764957947
2,1, 8,21, 0,23, 0.00,60.00,SummerDesignDay
10,586267064.5098704
46,249737579.99999974
70,96701579.99999997
345,153035999.9999997
992,231449399.99999977
1016,231449399.99999977
1496,81544245.1934213
1532,57764642.17263899
1556,57764642.17263899
2227,19754574.424524495
2365,7016926.349758417
4113,20708024.964584903
4125,15433496.554335183
4161,0.0
4233,0.0
4307,16762676.67102389
4419,64498510.71828355
4617,118974.40247772208
2,1, 8,21, 0,24, 0.00,60.00,SummerDesignDay
10,578296174.2488302
46,249737579.99999974
70,96701579.99999997
345,153035999.9999997
992,231449399.99999977
1016,231449399.99999977
1496,98524269.9223899
1532,57764642.17263899
1556,57764642.17263899
2227,19822850.11585225
2365,6748452.683287231
4113,20149955.609091496
4125,15686016.284707828
4161,0.0
4233,0.0
4307,34011175.066463667
4419,57017564.56916769
4617,118823.95471906936
1,SANTA-MARIA-PUBLIC-ARPT ANN HTG 99.6% CONDNS DB,  34.92,-120.47,  -8.00,  77.00
2,1, 1,21, 0, 1, 0.00,60.00,WinterDesignDay
10,34777791.78791198
46,0.0
70,0.0
345,0.0
992,0.0
1016,0.0
1496,274582947.69564047
1532,0.0
1556,0.0
2227,72000.0
2365,833512.4801246256
4113,19746441.405125597
4125,12196700.025587386
4161,0.0
4233,14765857.284292935
4307,273749435.2155158
4419,0.0
4617,193493.09849344666
2,1, 1,21, 0, 2, 0.00,60.00,WinterDesignDay
10,37762487.64958549
46,0.0
70,0.0
345,0.0
992,0.0
1016,0.0
1496,317594811.0890395
1532,0.0
1556,0.0
2227,854121.0169532003
2365,1087004.5864797943
4113,20893943.448846707
4125,12196700.025587386
4161,0.0
4233,15820930.246775534
4307,316507806.50255969
4419,0.0
4617,193492.9370100508
2,1, 1,21, 0, 3, 0.00,60.00,WinterDesignDay
10,39216137.59882556
46,0.0
70,0.0
345,0.0
992,0.0
1016,0.0
1496,341422986.85425
1532,0.0
1556,0.0
2227,854079.4096907605
2365,833326.4938410202
4113,21536405.60956402
4125,12196700.025587386
4161,0.0
4233,16632159.644488007
4307,340589660.36040899
4419,0.0
4617,193492.93508277587
2,1, 1,21, 0, 4, 0.00,60.00,WinterDesignDay
10,40346323.317477818
46,0.0
70,0.0
345,0.0
992,0.0
1016,0.0
1496,360355486.12439528
1532,0.0
1556,0.0
2227,854037.6695478844
2365,1087132.4982512384
4113,22028115.625577399
4125,12196700.025587386
4161,0.0
4233,17270677.087293514
4307,359268353.62614408
4419,0.0
4617,193492.93505902176
2,1, 1,21, 0, 5, 0.00,60.00,WinterDesignDay
10,41200485.76920823
46,0.0
70,0.0
345,0.0
992,0.0
1016,0.0
1496,373467841.23320606
1532,0.0
1556,0.0
2227,854019.3983097714
2365,833128.2271944874
4113,22383262.911528894
4125,12196700.025587386
4161,0.0
4233,17769710.524310836
4307,372634713.0060115
4419,0.0
4617,193492.93505872868
2,1, 1,21, 0, 6, 0.00,60.00,WinterDesignDay
10,49031042.73744658
46,0.0
70,0.0
345,0.0
992,0.0
1016,0.0
1496,383531406.1747435
1532,0.0
1556,0.0
2227,854105.8125097214
2365,1087259.6009784048
4113,22647373.776006946
4125,12196700.025587386
4161,0.0
4233,25336069.773042554
4307,382444146.5737651
4419,0.0
4617,193493.37588736666
2,1, 1,21, 0, 7, 0.00,60.00,WinterDesignDay
10,199097850.63388754
46,0.0
70,0.0
345,0.0
992,0.0
1016,0.0
1496,971814894.2130847
1532,0.0
1556,0.0
2227,854139.6787931012
2365,1048329.8976960534
4113,38553034.575749408
4125,12196700.025587386
4161,0.0
4233,159497181.33210833
4307,970766564.3153887
4419,0.0
4617,193495.04723670055
2,1, 1,21, 0, 8, 0.00,60.00,WinterDesignDay
10,55797061.81180582
46,0.0
70,0.0
345,0.0
992,0.0
1016,0.0
1496,832157352.8401337
1532,0.0
1556,0.0
2227,854022.3753963146
2365,872171.2180381706
4113,34822944.95814676
4125,12196700.025587386
4161,0.0
4233,19926601.48502988
4307,831285181.6220955
4419,0.0
4617,193492.993232865
2,1, 1,21, 0, 9, 0.00,60.00,WinterDesignDay
10,51237724.96968295
46,0.0
70,0.0
345,0.0
992,0.0
1016,0.0
1496,750123393.6691899
1532,0.0
1556,0.0
2227,854132.2022736338
2365,1086991.1869782524
4113,32614120.91972784
4125,12196700.025587386
4161,0.0
4233,17575978.911909135
4307,749036402.4822116
4419,0.0
4617,193492.93577233875
2,1, 1,21, 0,10, 0.00,60.00,WinterDesignDay
10,48934795.423971939
46,0.0
70,0.0
345,0.0
992,0.0
1016,0.0
1496,716595006.2749447
1532,0.0
1556,0.0
2227,854090.6307782818
2365,833375.0026218677
4113,31727934.710638998
4125,12196700.025587386
4161,0.0
4233,16159277.147487116
4307,715761631.2723229
4419,0.0
4617,193492.93506752773
2,1, 1,21, 0,11, 0.00,60.00,WinterDesignDay
10,47591699.418606568
46,0.0
70,0.0
345,0.0
992,0.0
1016,0.0
1496,698668258.7511276
1532,0.0
1556,0.0
2227,854048.9264461906
2365,1087119.194202173
4113,31244407.070587506
4125,12196700.025587386
4161,0.0
4233,15299750.486514036
4307,697581139.5569255
4419,0.0
4617,193492.9350588335
2,1, 1,21, 0,12, 0.00,60.00,WinterDesignDay
10,46735720.169492218
46,0.0
70,0.0
345,0.0
992,0.0
1016,0.0
1496,686577669.53256
1532,0.0
1556,0.0
2227,853928.4231379745
2365,833153.5333878168
4113,30927945.800989789
4125,12196700.025587386
4161,0.0
4233,14760353.010305725
4307,685744515.9991722
4419,0.0
4617,193492.93505872618
2,1, 1,21, 0,13, 0.00,60.00,WinterDesignDay
10,46154724.12134673
46,0.0
70,0.0
345,0.0
992,0.0
1016,0.0
1496,678307273.2350475
1532,0.0
1556,0.0
2227,854117.0633993695
2365,1087246.1882641586
4113,30698214.28612724
4125,12196700.025587386
4161,0.0
4233,14408899.836761387
4307,677220027.0467832
4419,0.0
4617,193492.93505872484
2,1, 1,21, 0,14, 0.00,60.00,WinterDesignDay
10,45747969.83790487
46,0.0
70,0.0
345,0.0
992,0.0
1016,0.0
1496,671570955.9712327
1532,0.0
1556,0.0
2227,854075.4434992571
2365,1009015.3126682676
4113,30517419.635972158
4125,12196700.025587386
4161,0.0
4233,14182981.82337473
4307,670561940.6585643
4419,0.0
4617,193492.93505872484
2,1, 1,21, 0,15, 0.00,60.00,WinterDesignDay
10,45473621.895674947
46,0.0
70,0.0
345,0.0
992,0.0
1016,0.0
1496,666031292.531465
1532,0.0
1556,0.0
2227,854033.6907033072
2365,911339.6867307678
4113,30368688.62929839
4125,12196700.025587386
4161,0.0
4233,14057406.640614517
4307,665119952.8447344
4419,0.0
4617,193492.9350587248
2,1, 1,21, 0,16, 0.00,60.00,WinterDesignDay
10,44462561.84554417
46,0.0
70,0.0
345,0.0
992,0.0
1016,0.0
1496,661640910.6556953
1532,0.0
1556,0.0
2227,72000.0
2365,1086977.6010911002
4113,30243277.83031136
4125,12196700.025587386
4161,0.0
4233,13953791.080174078
4307,660553933.0546043
4419,0.0
4617,193492.9350587248
2,1, 1,21, 0,17, 0.00,60.00,WinterDesignDay
10,45047680.21062065
46,0.0
70,0.0
345,0.0
992,0.0
1016,0.0
1496,657476031.8967493
1532,0.0
1556,0.0
2227,854143.3883805875
2365,833381.8408092251
4113,30135467.425601189
4125,12196700.025587386
4161,0.0
4233,13864576.461580148
4307,656642650.0559399
4419,0.0
4617,193492.93505872476
2,1, 1,21, 0,18, 0.00,60.00,WinterDesignDay
10,44875552.19706157
46,0.0
70,0.0
345,0.0
992,0.0
1016,0.0
1496,654328913.5582284
1532,0.0
1556,0.0
2227,854101.8526737848
2365,1087105.7907332783
4113,30041498.202996609
4125,12196700.025587386
4161,0.0
4233,13786459.206332449
4307,653241807.7674952
4419,0.0
4617,193492.93505872473
2,1, 1,21, 0,19, 0.00,60.00,WinterDesignDay
10,44723465.52006662
46,0.0
70,0.0
345,0.0
992,0.0
1016,0.0
1496,651086593.8432987
1532,0.0
1556,0.0
2227,854060.1841741295
2365,833189.9206022174
4113,29958794.318602414
4125,12196700.025587386
4161,0.0
4233,13717118.08223135
4307,650253403.9226965
4419,0.0
4617,193492.93505872473
2,1, 1,21, 0,20, 0.00,60.00,WinterDesignDay
10,44590554.895003
46,0.0
70,0.0
345,0.0
992,0.0
1016,0.0
1496,648759489.4208858
1532,0.0
1556,0.0
2227,854018.3827196008
2365,1087232.880486059
4113,29887280.660060593
4125,12196700.025587386
4161,0.0
4233,13655762.917164088
4307,647672256.5403998
4419,0.0
4617,193492.93505872476
2,1, 1,21, 0,21, 0.00,60.00,WinterDesignDay
10,44474300.19507121
46,0.0
70,0.0
345,0.0
992,0.0
1016,0.0
1496,646367889.8458953
1532,0.0
1556,0.0
2227,854128.2551919735
2365,969970.7084264392
4113,29824228.675460176
4125,12196700.025587386
4161,0.0
4233,13602450.329360333
4307,645397919.1374688
4419,0.0
4617,193492.93505872473
2,1, 1,21, 0,22, 0.00,60.00,WinterDesignDay
10,44367992.423637498
46,0.0
70,0.0
345,0.0
992,0.0
1016,0.0
1496,644271870.2483488
1532,0.0
1556,0.0
2227,854086.6710729499
2365,950384.087638592
4113,29766657.240685055
4125,12196700.025587386
4161,0.0
4233,13553755.576820763
4307,643321486.1607102
4419,0.0
4617,193492.9350587247
2,1, 1,21, 0,23, 0.00,60.00,WinterDesignDay
10,27083058.077818738
46,0.0
70,0.0
345,0.0
992,0.0
1016,0.0
1496,9786199.07479801
1532,0.0
1556,0.0
2227,853976.8582832464
2365,1087290.8946559043
4113,12478023.624299359
4125,12196700.025587388
4161,0.0
4233,13557561.365438616
4307,8698908.180142107
4419,0.0
4617,193496.22979751125
2,1, 1,21, 0,24, 0.00,60.00,WinterDesignDay
10,32859515.47310648
46,0.0
70,0.0
345,0.0
992,0.0
1016,0.0
1496,168551977.27805228
1532,0.0
1556,0.0
2227,853949.1048550818
2365,833491.133099208
4113,16889618.620440794
4125,12196700.025587386
4161,0.0
4233,14922453.238412817
4307,167718486.14495308
4419,0.0
4617,193494.5093977966
1,SANTA-MARIA-PUBLIC-ARPT AUG CLG 0.4% CONDNS DB=>MCWB,  34.92,-120.47,  -8.00,  77.00
2,1, 8,21, 0, 1, 0.00,60.00,SummerDesignDay
10,617006378.7569563
46,249737579.99999974
70,96701579.99999997
345,153035999.9999997
992,231449399.99999977
1016,231449399.99999977
1496,64483675.4154526
1532,57764642.17263899
1556,57764642.17263899
2227,19755117.908028116
2365,6719033.242813609
4113,24180585.423343924
4125,16322508.364478315
4161,0.0
4233,0.0
4307,0.0
4419,91883695.42558465
4617,0.0
2,1, 8,21, 0, 2, 0.00,60.00,SummerDesignDay
10,614514166.2780496
46,249737579.99999974
70,96701579.99999997
345,153035999.9999997
992,231449399.99999977
1016,231449399.99999977
1496,64484195.15130559
1532,57764642.17263899
1556,57764642.17263899
2227,19754853.369154399
2365,6719552.978666608
4113,24033771.62606573
4125,16565253.86170595
4161,0.0
4233,0.0
4307,0.0
4419,89538561.28282985
4617,0.0
2,1, 8,21, 0, 3, 0.00,60.00,SummerDesignDay
10,612374815.6874617
46,249737579.99999974
70,96701579.99999997
345,153035999.9999997
992,231449399.99999977
1016,231449399.99999977