Program Version,EnergyPlus, Version 9.0.1-bb7ca4f0da, YMD=2019.12.18 16:28
1,5,Environment Title[],Latitude[deg],Longitude[deg],Time Zone[],Elevation[m]
2,8,Day of Simulation[],Month[],Day of Month[],DST Indicator[1=yes 0=no],Hour[],StartMinute[],EndMinute[],DayType
3,5,Cumulative Day of Simulation[],Month[],Day of Month[],DST Indicator[1=yes 0=no],DayType  ! When Daily Meters Requested
4,2,Cumulative Days of Simulation[],Month[]  ! When Monthly Meters Requested
5,1,Cumulative Days of Simulation[] ! When Run Period Meters Requested
6,1,Calendar Year of Simulation[] ! When Annual Meters Requested
46,1,InteriorLights:Electricity [J] !Hourly
4133,1,General:Fans:Electricity [J] !Hourly
4121,1,Fans:Electricity [J] !Hourly
2227,1,WaterSystems:Electricity [J] !Hourly
1016,1,Receptacle:InteriorEquipment:Electricity [J] !Hourly
10,1,Electricity:Facility [J] !Hourly
4230,1,Heating:Gas [J] !Hourly
992,1,InteriorEquipment:Electricity [J] !Hourly
4480,1,Pumps:Electricity [J] !Hourly
4243,1,Heating:Electricity [J] !Hourly
4354,1,Cooling:Electricity [J] !Hourly
1496,1,Gas:Facility [J] !Hourly
1532,1,InteriorEquipment:Gas [J] !Hourly
2365,1,WaterSystems:Gas [J] !Hourly
1556,1,Receptacle:InteriorEquipment:Gas [J] !Hourly
70,1,ComplianceLtg:InteriorLights:Electricity [J] !Hourly
345,1,NonComplianceLtg:InteriorLights:Electricity [J] !Hourly
4170,1,ProcessMotors:Fans:Electricity [J] !Hourly
End of Data Dictionary
1,SACRAMENTO-EXECUTIVE-ARP ANN CLG 0.4% CONDNS DB=>MCWB,  38.50,-121.50,  -8.00,   5.00
2,1, 7,21, 0, 1, 0.00,60.00,SummerDesignDay
10,678879375.860478
46,249737579.99999974
70,96701579.99999997
345,153035999.9999997
992,231449399.99999977
1016,231449399.99999977
1496,64073079.50956658
1532,57764642.17263899
1556,57764642.17263899
2227,17932390.738620439
2365,6308437.336927591
4121,237.92820902480492
4133,40.376093957211697
4170,146.49394504991597
4230,0.0
4243,0.0
4354,179759767.1936486
4480,0.0
2,1, 7,21, 0, 2, 0.00,60.00,SummerDesignDay
10,667393078.1511538
46,249737579.99999974
70,96701579.99999997
345,153035999.9999997
992,231449399.99999977
1016,231449399.99999977
1496,64072844.542117837
1532,57764642.17263899
1556,57764642.17263899
2227,18984237.096346499
2365,6308202.3694788389
4121,235.40630320651068
4133,40.38735464264836
4170,146.49394504991597
4230,0.0
4243,0.0
4354,167221625.64850415
4480,0.0
2,1, 7,21, 0, 3, 0.00,60.00,SummerDesignDay
10,658622805.3305266
46,249737579.99999974
70,96701579.99999997
345,153035999.9999997
992,231449399.99999977
1016,231449399.99999977
1496,64177798.732193898
1532,57764642.17263899
1556,57764642.17263899
2227,18757538.334111297
2365,6413156.559554903
4121,233.70366688653227
4133,40.396271831284597
4170,146.49394504991597
4230,0.0
4243,0.0
4354,158678053.29274849
4480,0.0
2,1, 7,21, 0, 4, 0.00,60.00,SummerDesignDay
10,650603863.5830103
46,249737579.99999974
70,96701579.99999997
345,153035999.9999997
992,231449399.99999977
1016,231449399.99999977
1496,64226238.5727611
1532,57764642.17263899
1556,57764642.17263899
2227,18159013.22133478
2365,6461596.40012211
4121,232.23510367457747
4133,40.40267492034944
4170,146.49394504991597
4230,0.0
4243,0.0
4354,151257638.1265719
4480,0.0
2,1, 7,21, 0, 5, 0.00,60.00,SummerDesignDay
10,645539944.1274208
46,249737579.99999974
70,96701579.99999997
345,153035999.9999997
992,231449399.99999977
1016,231449399.99999977
1496,64226210.66665635
1532,57764642.17263899
1556,57764642.17263899
2227,18984268.7443767
2365,6461568.494017361
4121,231.03119391091875
4133,40.40694210537929
4170,146.49394504991597
4230,0.0
4243,0.0
4354,145368464.35185007
4480,0.0
2,1, 7,21, 0, 6, 0.00,60.00,SummerDesignDay
10,674664450.1415509
46,249737579.99999974
70,96701579.99999997
345,153035999.9999997
992,231449399.99999977
1016,231449399.99999977
1496,64226419.658775608
1532,57764642.17263899
1556,57764642.17263899
2227,18530479.9272186
2365,6461777.4861366129
4121,242.0609351798881
4133,46.59777137957508
4170,146.49394504991597
4230,0.0
4243,0.0
4354,174946748.15339724
4480,0.0
2,1, 7,21, 0, 7, 0.00,60.00,SummerDesignDay
10,765911865.212534
46,249737579.99999974
70,96701579.99999997
345,153035999.9999997
992,231449399.99999977
1016,231449399.99999977
1496,64202001.69322238
1532,57764642.17263899
1556,57764642.17263899
2227,18387834.08008867
2365,6437359.520583386
4121,287.7043381753514
4133,80.75102601980166
4170,146.49394504991597
4230,0.0
4243,0.0
4354,266336763.4281073
4480,0.0
2,1, 7,21, 0, 8, 0.00,60.00,SummerDesignDay
10,787704419.5791599
46,249737579.99999974
70,96701579.99999997
345,153035999.9999997
992,231449399.99999977
1016,231449399.99999977
1496,64072724.516404379
1532,57764642.17263899
1556,57764642.17263899
2227,18984231.208719836
2365,6308082.343765384
4121,280.2666530725484
4133,62.78904162685542
4170,146.49394504991597
4230,0.0
4243,0.0
4354,287532928.1037868
4480,0.0
2,1, 7,21, 0, 9, 0.00,60.00,SummerDesignDay
10,837273322.0644287
46,249737579.99999974
70,96701579.99999997
345,153035999.9999997
992,231449399.99999977
1016,231449399.99999977
1496,64073026.934464
1532,57764642.17263899
1556,57764642.17263899
2227,18301691.377805696
2365,6308384.761825012
4121,291.97467452113798
4133,60.689696477604
4170,146.49394504991597
4230,0.0
4243,0.0
4354,337784358.7119486
4480,0.0
2,1, 7,21, 0,10, 0.00,60.00,SummerDesignDay
10,887525998.7433388
46,249737579.99999974
70,96701579.99999997
345,153035999.9999997
992,231449399.99999977
1016,231449399.99999977
1496,64202677.392044369
1532,57764642.17263899
1556,57764642.17263899
2227,18615270.61518249
2365,6438035.219405377
4121,302.5721038681362
4133,60.91968772176132
4170,146.49394504991597
4230,0.0
4243,0.0
4354,387723445.55605259
4480,0.0
2,1, 7,21, 0,11, 0.00,60.00,SummerDesignDay
10,931292297.9399774
46,249737579.99999974
70,96701579.99999997
345,153035999.9999997
992,231449399.99999977
1016,231449399.99999977
1496,64226180.02754461
1532,57764642.17263899
1556,57764642.17263899
2227,18983865.048938574
2365,6461537.854905622
4121,309.9479884032392
4133,61.298130444417427
4170,146.49394504991597
4230,0.0
4243,0.0
4354,431121142.9430503
4480,0.0
2,1, 7,21, 0,12, 0.00,60.00,SummerDesignDay
10,964173519.7368388
46,249737579.99999974
70,96701579.99999997
345,153035999.9999997
992,231449399.99999977
1016,231449399.99999977
1496,64226258.12834601
1532,57764642.17263899
1556,57764642.17263899
2227,18074542.865974275
2365,6461615.9557070289
4121,315.09855681860616
4133,61.728313754300817
4170,146.49394504991597
4230,0.0
4243,0.0
4354,464911681.77230778
4480,0.0
2,1, 7,21, 0,13, 0.00,60.00,SummerDesignDay
10,993459732.0859525
46,249737579.99999974
70,96701579.99999997
345,153035999.9999997
992,231449399.99999977
1016,231449399.99999977
1496,64226326.597583819
1532,57764642.17263899
1556,57764642.17263899
2227,18842383.331891627
2365,6461684.424944832
4121,320.2305149618083
4133,62.38209034248261
4170,146.49394504991597
4230,0.0
4243,0.0
4354,493430048.523546
4480,0.0
2,1, 7,21, 0,14, 0.00,60.00,SummerDesignDay
10,1020253776.6887896
46,249737579.99999974
70,96701579.99999997
345,153035999.9999997
992,231449399.99999977
1016,231449399.99999977
1496,64176903.11376157
1532,57764642.17263899
1556,57764642.17263899
2227,18983519.013616183
2365,6412260.941122574
4121,326.8776824188168
4133,63.51444056418727
4170,146.49394504991597
4230,0.0
4243,0.0
4354,520082950.797491
4480,0.0
2,1, 7,21, 0,15, 0.00,60.00,SummerDesignDay
10,1039909543.6032661
46,249737579.99999974
70,96701579.99999997
345,153035999.9999997
992,231449399.99999977
1016,231449399.99999977
1496,64072945.61458477
1532,57764642.17263899
1556,57764642.17263899
2227,17932812.443376747
2365,6308303.441945775
4121,335.208659406643
4133,65.36483826941182
4170,146.49394504991597
4230,0.0
4243,0.0
4354,540789415.9512302
4480,0.0
2,1, 7,21, 0,16, 0.00,60.00,SummerDesignDay
10,1041252342.9593752
46,249737579.99999974
70,96701579.99999997
345,153035999.9999997
992,231449399.99999977
1016,231449399.99999977
1496,64074200.196148548
1532,57764642.17263899
1556,57764642.17263899
2227,18984370.97971199
2365,6309558.023509551
4121,339.7837649853509
4133,66.92350431075272
4170,146.49394504991597
4230,0.0
4243,0.0
4354,541080652.1958982
4480,0.0
2,1, 7,21, 0,17, 0.00,60.00,SummerDesignDay
10,1019129079.0042225
46,249737579.99999974
70,96701579.99999997
345,153035999.9999997
992,231449399.99999977
1016,231449399.99999977
1496,64226102.19238685
1532,57764642.17263899
1556,57764642.17263899
2227,18983682.826269818
2365,6461460.019747861
4121,336.684976561707
4133,66.79231175926037
4170,146.49394504991597
4230,0.0
4243,0.0
4354,518958079.49297609
4480,0.0
2,1, 7,21, 0,18, 0.00,60.00,SummerDesignDay
10,983110085.6940471
46,249737579.99999974
70,96701579.99999997
345,153035999.9999997
992,231449399.99999977
1016,231449399.99999977
1496,64226145.91829731
1532,57764642.17263899
1556,57764642.17263899
2227,17932904.036321444
2365,6461503.745658321
4121,328.74766018283358
4133,65.72874442110433
4170,146.49394504991597
4230,0.0
4243,0.0
4354,483989872.91006556
4480,0.0
2,1, 7,21, 0,19, 0.00,60.00,SummerDesignDay
10,929884399.5063471
46,249737579.99999974
70,96701579.99999997
345,153035999.9999997
992,231449399.99999977
1016,231449399.99999977
1496,64226184.51367217
1532,57764642.17263899
1556,57764642.17263899
2227,18984137.292530188
2365,6461542.34103318
4121,313.47289754927189
4133,62.84260511079957
4170,146.49394504991597
4230,0.0
4243,0.0
4354,429712968.7409192
4480,0.0
2,1, 7,21, 0,20, 0.00,60.00,SummerDesignDay
10,865168936.9787448
46,249737579.99999974
70,96701579.99999997
345,153035999.9999997
992,231449399.99999977
1016,231449399.99999977
1496,64226340.55030966
1532,57764642.17263899
1556,57764642.17263899
2227,18793249.03492421
2365,6461698.377670668
4121,291.4418559703738
4133,59.31900967005977
4170,146.49394504991597
4230,0.0
4243,0.0
4354,365188416.5019647
4480,0.0
2,1, 7,21, 0,21, 0.00,60.00,SummerDesignDay
10,821460230.8399621
46,249737579.99999974
70,96701579.99999997
345,153035999.9999997
992,231449399.99999977
1016,231449399.99999977
1496,64152450.00352921
1532,57764642.17263899
1556,57764642.17263899
2227,18123124.04144651
2365,6387807.830890222
4121,277.20322616617758
4133,56.61641596865922
4170,146.49394504991597
4230,0.0
4243,0.0
4354,322149849.59528949
4480,0.0
2,1, 7,21, 0,22, 0.00,60.00,SummerDesignDay
10,758205841.818994
46,249737579.99999974
70,96701579.99999997
345,153035999.9999997
992,231449399.99999977
1016,231449399.99999977
1496,64073123.44361635
1532,57764642.17263899
1556,57764642.17263899
2227,18985211.397428279
2365,6308481.270977363
4121,256.9170721324588
4133,44.43954466118248
4170,146.49394504991597
4230,0.0
4243,0.0
4354,258033393.5044937
4480,0.0
2,1, 7,21, 0,23, 0.00,60.00,SummerDesignDay
10,732950126.1567999
46,249737579.99999974
70,96701579.99999997
345,153035999.9999997
992,231449399.99999977
1016,231449399.99999977
1496,64098696.956854898
1532,57764642.17263899
1556,57764642.17263899
2227,18564998.01671184
2365,6334054.784215907
4121,250.4029417299171
4133,44.013003312133339
4170,146.49394504991597
4230,0.0
4243,0.0
4354,233197897.73714639
4480,0.0
2,1, 7,21, 0,24, 0.00,60.00,SummerDesignDay
10,711688278.5718112
46,249737579.99999974
70,96701579.99999997
345,153035999.9999997
992,231449399.99999977
1016,231449399.99999977
1496,64226139.85840997
1532,57764642.17263899
1556,57764642.17263899
2227,18351715.492090465
2365,6461497.685770985
4121,245.17758142424675
4133,43.685680250919578
4170,146.49394504991597
4230,0.0
4243,0.0
4354,212149337.90213923
4480,0.0
1,SACRAMENTO-EXECUTIVE-ARP ANN CLG 0.4% CONDNS DP=>MCDB,  38.50,-121.50,  -8.00,   5.00
2,1, 7,21, 0, 1, 0.00,60.00,SummerDesignDay
10,557680722.1730697
46,249737579.99999974
70,96701579.99999997
345,153035999.9999997
992,231449399.99999977
1016,231449399.99999977
1496,64072978.74034431
1532,57764642.17263899
1556,57764642.17263899
2227,17932443.067735766
2365,6308336.567705324
4121,213.31887488206329
4133,40.33955242190672
4170,146.49394504991597
4230,0.0
4243,0.0
4354,58561085.7864591
4480,0.0
2,1, 7,21, 0, 2, 0.00,60.00,SummerDesignDay
10,542018015.9427128
46,249737579.99999974
70,96701579.99999997
345,153035999.9999997
992,231449399.99999977
1016,231449399.99999977
1496,64717954.13613803
1532,57764642.17263899
1556,57764642.17263899
2227,18984237.048435037
2365,6308202.727355193
4121,209.71660633209926
4133,40.34449103047923
4170,146.49394504991597
4230,645109.2361438522
4243,0.0
4354,41846589.17767123
4480,0.0
2,1, 7,21, 0, 3, 0.00,60.00,SummerDesignDay
10,535284272.69331029
46,249737579.99999974
70,96701579.99999997
345,153035999.9999997
992,231449399.99999977
1016,231449399.99999977
1496,74760456.20808366
1532,57764642.17263899
1556,57764642.17263899
2227,18757237.303290979
2365,6413374.801133687
4121,207.13869090925835
4133,40.347372125081658
4170,146.49394504991597
4230,10582439.234310968
4243,0.0
4354,35339848.25132841
4480,0.0
2,1, 7,21, 0, 4, 0.00,60.00,SummerDesignDay
10,530692159.2158295
46,249737579.99999974
70,96701579.99999997
345,153035999.9999997
992,231449399.99999977
1016,231449399.99999977
1496,88843365.24000871
1532,57764642.17263899
1556,57764642.17263899
2227,18159314.441166216
2365,6461595.8750047539
4121,204.93485258917327
4133,40.34909024412689
4170,146.49394504991597
4230,24617127.19236497
4243,0.0
4354,31345659.839810678
4480,0.0
2,1, 7,21, 0, 5, 0.00,60.00,SummerDesignDay
10,528238443.9054894
46,249737579.99999974
70,96701579.99999997
345,153035999.9999997
992,231449399.99999977
1016,231449399.99999977
1496,100140470.3629851
1532,57764642.17263899
1556,57764642.17263899
2227,18984268.875975595
2365,6461568.723893854
4121,203.11877924069595
4133,40.349493012821408
4170,146.49394504991597
4230,35914259.46645226
4243,0.0
4354,28066991.9107346
4480,0.0
2,1, 7,21, 0, 6, 0.00,60.00,SummerDesignDay
10,549819851.6665967
46,249737579.99999974
70,96701579.99999997
345,153035999.9999997
992,231449399.99999977
1016,231449399.99999977
1496,91862760.0919474
1532,57764642.17263899
1556,57764642.17263899
2227,18530082.486107399
2365,6461717.026269445
4121,211.38227617270673
4133,44.137692413176697
4170,146.49394504991597
4230,27636400.89303896
4243,0.0
4354,50102577.79821298
4480,0.0
2,1, 7,21, 0, 7, 0.00,60.00,SummerDesignDay
10,620605276.9660106
46,249737579.99999974
70,96701579.99999997
345,153035999.9999997
992,231449399.99999977
1016,231449399.99999977
1496,66243842.71056157
1532,57764642.17263899
1556,57764642.17263899
2227,18387058.30715621
2365,6437161.306916714
4121,237.276041465034
4133,58.25153405290108
4170,146.49394504991597
4230,2042039.2310058757
4243,0.0
4354,121031001.38281283
4480,0.0
2,1, 7,21, 0, 8, 0.00,60.00,SummerDesignDay
10,651356665.3542781
46,249737579.99999974
70,96701579.99999997
345,153035999.9999997
992,231449399.99999977
1016,231449399.99999977
1496,64072724.58636606
1532,57764642.17263899
1556,57764642.17263899
2227,18984233.435114419
2365,6308082.413727067
4121,242.19692287977709
4133,51.17525882728038
4170,146.49394504991597
4230,0.0
4243,0.0
4354,151185209.72224073
4480,0.0
2,1, 7,21, 0, 9, 0.00,60.00,SummerDesignDay
10,715944821.8998507
46,249737579.99999974
70,96701579.99999997
345,153035999.9999997
992,231449399.99999977
1016,231449399.99999977
1496,64073027.00297588
1532,57764642.17263899
1556,57764642.17263899
2227,18303042.49475464
2365,6308384.830336898
4121,257.9863593012307
4133,51.27387279757657
4170,146.49394504991597
4230,0.0
4243,0.0
4354,216454541.41873659
4480,0.0
2,1, 7,21, 0,10, 0.00,60.00,SummerDesignDay
10,772471929.8385575
46,249737579.99999974
70,96701579.99999997
345,153035999.9999997
992,231449399.99999977
1016,231449399.99999977
1496,64202711.12837955
1532,57764642.17263899
1556,57764642.17263899
2227,18613915.87817821
2365,6438068.955740562
4121,270.76957439393677
4133,52.1784161141221
4170,146.49394504991597
4230,0.0
4243,0.0
4354,272670763.19080486
4480,0.0
2,1, 7,21, 0,11, 0.00,60.00,SummerDesignDay
10,814985841.3059025
46,249737579.99999974
70,96701579.99999997
345,153035999.9999997
992,231449399.99999977
1016,231449399.99999977
1496,64226180.01155557
1532,57764642.17263899
1556,57764642.17263899
2227,18983866.013549344
2365,6461537.838916576
4121,278.82620742899
4133,52.96717334209171
4170,146.49394504991597
4230,0.0
4243,0.0
4354,314814716.46614596
4480,0.0
2,1, 7,21, 0,12, 0.00,60.00,SummerDesignDay
10,843264825.0470159
46,249737579.99999974
70,96701579.99999997
345,153035999.9999997
992,231449399.99999977
1016,231449399.99999977
1496,64226258.11285007
1532,57764642.17263899
1556,57764642.17263899
2227,18075897.008310006
2365,6461615.940211074
4121,284.2784319396996
4133,53.632098186065068
4170,146.49394504991597
4230,0.0
4243,0.0
4354,344001663.76027396
4480,0.0
2,1, 7,21, 0,13, 0.00,60.00,SummerDesignDay
10,868081244.6398826
46,249737579.99999974
70,96701579.99999997
345,153035999.9999997
992,231449399.99999977
1016,231449399.99999977
1496,64226326.5249047
1532,57764642.17263899
1556,57764642.17263899
2227,18841027.42125777
2365,6461684.352265709
4121,289.54190847722466
4133,54.351257068058767
4170,146.49394504991597
4230,0.0
4243,0.0
4354,368052947.67671629
4480,0.0
2,1, 7,21, 0,14, 0.00,60.00,SummerDesignDay
10,890926916.1826909
46,249737579.99999974
70,96701579.99999997
345,153035999.9999997
992,231449399.99999977
1016,231449399.99999977
1496,64176869.635994058
1532,57764642.17263899
1556,57764642.17263899
2227,18983518.43554341
2365,6412227.463355065
4121,296.04103516042258
4133,55.365888144189359
4170,146.49394504991597
4230,0.0
4243,0.0
4354,390756121.7061124
4480,0.0
2,1, 7,21, 0,15, 0.00,60.00,SummerDesignDay
10,908192884.7707682
46,249737579.99999974
70,96701579.99999997
345,153035999.9999997
992,231449399.99999977
1016,231449399.99999977
1496,64072945.69635404
1532,57764642.17263899
1556,57764642.17263899
2227,17932812.302719464
2365,6308303.523715051
4121,304.0065092237543
4133,56.91327032173593
4170,146.49394504991597
4230,0.0
4243,0.0
4354,409072788.4615395
4480,0.0
2,1, 7,21, 0,16, 0.00,60.00,SummerDesignDay
10,910039227.6343107
46,249737579.99999974
70,96701579.99999997
345,153035999.9999997
992,231449399.99999977
1016,231449399.99999977
1496,64074233.47659202
1532,57764642.17263899
1556,57764642.17263899
2227,18984372.152658605
2365,6309591.303953033
4121,308.12565623008467
4133,58.236033026483948
4170,146.49394504991597
4230,0.0
4243,0.0
4354,409867567.3559959
4480,0.0
2,1, 7,21, 0,17, 0.00,60.00,SummerDesignDay
10,891150642.3248165
46,249737579.99999974
70,96701579.99999997
345,153035999.9999997
992,231449399.99999977
1016,231449399.99999977
1496,64283579.87069233
1532,57764642.17263899
1556,57764642.17263899
2227,18983681.453140059
2365,6461460.067665056
4121,304.8924320930869
4133,58.2170846064175
4170,146.49394504991597
4230,57477.6303882863
4243,0.0
4354,390979675.97924438
4480,0.0
2,1, 7,21, 0,18, 0.00,60.00,SummerDesignDay
10,860289581.9729542
46,249737579.99999974
70,96701579.99999997
345,153035999.9999997
992,231449399.99999977
1016,231449399.99999977
1496,64471647.80730952
1532,57764642.17263899
1556,57764642.17263899
2227,17932903.088927866
2365,6461503.751901239
4121,297.07372178723377
4133,57.388972827049148
4170,146.49394504991597
4230,245501.8827692948
4243,0.0
4354,361169401.8103044
4480,0.0
2,1, 7,21, 0,19, 0.00,60.00,SummerDesignDay
10,812377224.9598069
46,249737579.99999974
70,96701579.99999997
345,153035999.9999997
992,231449399.99999977
1016,231449399.99999977
1496,64718562.57206582
1532,57764642.17263899
1556,57764642.17263899
2227,18984323.245996708
2365,6461618.401906435
4121,282.7533873550837
4133,55.13692418824003
4170,146.49394504991597
4230,492301.99752040559
4243,0.0
4354,312205638.96042278
4480,0.0
2,1, 7,21, 0,20, 0.00,60.00,SummerDesignDay
10,752753520.2205662
46,249737579.99999974
70,96701579.99999997
345,153035999.9999997
992,231449399.99999977
1016,231449399.99999977
1496,65065592.55469766
1532,57764642.17263899
1556,57764642.17263899
2227,18794137.04854993
2365,6461698.546482651
4121,262.32381348323818
4133,52.39815117967038
4170,146.49394504991597
4230,839251.8355760202
4243,0.0
4354,252772140.8482027
4480,0.0
2,1, 7,21, 0,21, 0.00,60.00,SummerDesignDay
10,711012333.5173402
46,249737579.99999974
70,96701579.99999997
345,153035999.9999997
992,231449399.99999977
1016,231449399.99999977
1496,65315946.767502348
1532,57764642.17263899
1556,57764642.17263899
2227,18122256.575982028
2365,6387576.499612447
4121,248.91423893824465
4133,50.27309183528255
4170,146.49394504991597
4230,1163728.0952509086
4243,0.0
4354,211702848.02711929
4480,0.0
2,1, 7,21, 0,22, 0.00,60.00,SummerDesignDay
10,655297503.083666
46,249737579.99999974
70,96701579.99999997
345,153035999.9999997
992,231449399.99999977
1016,231449399.99999977
1496,64073403.242799017
1532,57764642.17263899
1556,57764642.17263899
2227,18985268.327644785
2365,6308761.070160027
4121,233.62206822846677
4133,43.22051979089592
4170,146.49394504991597
4230,0.0
4243,0.0
4354,155125021.13395287
4480,0.0
2,1, 7,21, 0,23, 0.00,60.00,SummerDesignDay
10,622447772.7091786
46,249737579.99999974
70,96701579.99999997
345,153035999.9999997
992,231449399.99999977
1016,231449399.99999977
1496,64098670.3819068
1532,57764642.17263899
1556,57764642.17263899
2227,18566341.822735974
2365,6334028.209267812
4121,226.51432208652663
4133,42.83625910280898
4170,146.49394504991597
4230,0.0
4243,0.0
4354,122694224.37212044
4480,0.0
2,1, 7,21, 0,24, 0.00,60.00,SummerDesignDay
10,594854399.3691554
46,249737579.99999974
70,96701579.99999997
345,153035999.9999997
992,231449399.99999977
1016,231449399.99999977
1496,64226139.81473321
1532,57764642.17263899
1556,57764642.17263899
2227,18350370.081211427
2365,6461497.642094212
4121,220.5342970765064
4133,42.55580303075487
4170,146.49394504991597
4230,0.0
4243,0.0
4354,95316828.75364687
4480,0.0
1,SACRAMENTO-EXECUTIVE-ARP ANN HTG 99.6% CONDNS DB,  38.50,-121.50,  -8.00,   5.00
2,1, 1,21, 0, 1, 0.00,60.00,WinterDesignDay
10,72217.90705647727
46,0.0
70,0.0
345,0.0
992,0.0
1016,0.0
1496,586352958.4603657
1532,0.0
1556,0.0
2227,72000.0
2365,579679.2082582207
4121,217.9070564772035
4133,40.27947242855052
4170,146.49394504991597
4230,585773279.2521075
4243,0.0
4354,0.0
4480,0.0
2,1, 1,21, 0, 2, 0.00,60.00,WinterDesignDay
10,72228.1339604578
46,0.0
70,0.0
345,0.0
992,0.0
1016,0.0
1496,667272124.4037089
1532,0.0
1556,0.0
2227,72000.0
2365,833426.0537777685
4121,228.13396045773156
4133,40.27947242855052
4170,146.49394504991597
4230,666438698.3499312
4243,0.0
4354,0.0
4480,0.0
2,1, 1,21, 0, 3, 0.00,60.00,WinterDesignDay
10,72235.78899938635
46,0.0
70,0.0
345,0.0
992,0.0
1016,0.0
1496,733508822.4320207
1532,0.0
1556,0.0
2227,72000.0
2365,833372.3412852658
4121,235.78899938629346
4133,40.27947242855052
4170,146.49394504991597
4230,732675450.0907354
4243,0.0
4354,0.0
4480,0.0
2,1, 1,21, 0, 4, 0.00,60.00,WinterDesignDay
10,72241.79389631454
46,0.0
70,0.0
345,0.0
992,0.0
1016,0.0
1496,794518825.6312645
1532,0.0
1556,0.0
2227,72000.0
2365,833413.109390104
4121,241.79389631447635
4133,40.27947242855052
4170,146.49394504991597
4230,793685412.5218744
4243,0.0
4354,0.0
4480,0.0
2,1, 1,21, 0, 5, 0.00,60.00,WinterDesignDay
10,72246.18056821128
46,0.0
70,0.0
345,0.0
992,0.0
1016,0.0
1496,838713082.0018445
1532,0.0
1556,0.0
2227,72000.0
2365,833295.5186383517
4121,246.18056821122713
4133,40.27947242855052
4170,146.49394504991597
4230,837879786.4832062
4243,0.0
4354,0.0
4480,0.0
2,1, 1,21, 0, 6, 0.00,60.00,WinterDesignDay
10,5794081.728563152
46,0.0
70,0.0
345,0.0
992,0.0
1016,0.0
1496,1042073376.682849
1532,0.0
1556,0.0
2227,72000.0
2365,670562.7594467285
4121,272.45845918170496
4133,63.747537506051447
4170,146.49394504991597
4230,1041402813.9234023
4243,0.0
4354,5721809.270103971
4480,0.0
2,1, 1,21, 0, 7, 0.00,60.00,WinterDesignDay
10,8654718.74573809
46,0.0
70,0.0
345,0.0
992,0.0
1016,0.0
1496,1928566013.8923469
1532,0.0
1556,0.0
2227,72000.0
2365,742604.9520407135
4121,403.5800203308742
4133,104.19070255154569
4170,146.49394504991597
4230,1927823408.9403063
4243,0.0
4354,8582315.165717759
4480,0.0
2,1, 1,21, 0, 8, 0.00,60.00,WinterDesignDay
10,72324.0960243889
46,0.0
70,0.0
345,0.0
992,0.0
1016,0.0
1496,1635858494.5152724
1532,0.0
1556,0.0
2227,72000.0
2365,833457.1847837539
4121,324.0960243888337
4133,43.22631733367793
4170,146.49394504991597
4230,1635025037.3304888
4243,0.0
4354,0.0
4480,0.0
2,1, 1,21, 0, 9, 0.00,60.00,WinterDesignDay
10,72305.18756638318
46,0.0
70,0.0
345,0.0
992,0.0
1016,0.0
1496,1469452908.992805
1532,0.0
1556,0.0
2227,72000.0
2365,833340.0414884641
4121,305.1875663830984
4133,41.34113487241379
4170,146.49394504991597
4230,1468619568.9513167
4243,0.0
4354,0.0
4480,0.0
2,1, 1,21, 0,10, 0.00,60.00,WinterDesignDay
10,72295.58244510676
46,0.0
70,0.0
345,0.0
992,0.0
1016,0.0
1496,1384125473.2325748
1532,0.0
1556,0.0
2227,72000.0
2365,833381.0274275802
4121,295.58244510668239
4133,40.74998502236137
4170,146.49394504991597
4230,1383292092.205147
4243,0.0
4354,0.0
4480,0.0
2,1, 1,21, 0,11, 0.00,60.00,WinterDesignDay
10,72289.81641457677
46,0.0
70,0.0
345,0.0
992,0.0
1016,0.0
1496,1332000960.1655517
1532,0.0
1556,0.0
2227,72000.0
2365,833291.788060925
4121,289.8164145766978
4133,40.5817377057882
4170,146.49394504991597
4230,1331167668.377491
4243,0.0
4354,0.0
4480,0.0
2,1, 1,21, 0,12, 0.00,60.00,WinterDesignDay
10,72285.97485014587
46,0.0
70,0.0
345,0.0
992,0.0
1016,0.0
1496,1297314828.4452785
1532,0.0
1556,0.0
2227,72000.0
2365,579602.2294550436
4121,285.97485014581346
4133,40.49472354074896
4170,146.49394504991597
4230,1296735226.2158232
4243,0.0
4354,0.0
4480,0.0
2,1, 1,21, 0,13, 0.00,60.00,WinterDesignDay
10,72283.31791030236
46,0.0
70,0.0
345,0.0
992,0.0
1016,0.0
1496,1273827266.5784269
1532,0.0
1556,0.0
2227,72000.0
2365,833383.7652678643
4121,283.317910302292
4133,40.44097128463879
4170,146.49394504991597
4230,1272993882.813159
4243,0.0
4354,0.0
4480,0.0
2,1, 1,21, 0,14, 0.00,60.00,WinterDesignDay
10,72281.43827466096
46,0.0
70,0.0
345,0.0
992,0.0
1016,0.0
1496,1256994279.5257738
1532,0.0
1556,0.0
2227,72000.0
2365,833425.2085438252
4121,281.43827466091138
4133,40.40622189204748
4170,146.49394504991597
4230,1256160854.31723
4243,0.0
4354,0.0
4480,0.0
2,1, 1,21, 0,15, 0.00,60.00,WinterDesignDay
10,72280.1130650684
46,0.0
70,0.0
345,0.0
992,0.0
1016,0.0
1496,1245161189.790114
1532,0.0
1556,0.0
2227,72000.0
2365,833320.9282454276
4121,280.11306506833497
4133,40.38263103823064
4170,146.49394504991597
4230,1244327868.8618685
4243,0.0
4354,0.0
4480,0.0
2,1, 1,21, 0,16, 0.00,60.00,WinterDesignDay
10,72279.15683151185
46,0.0
70,0.0
345,0.0
992,0.0
1016,0.0
1496,1236577924.270527
1532,0.0
1556,0.0
2227,72000.0
2365,833348.7482576778
4121,279.1568315117934
4133,40.36639945886435
4170,146.49394504991597
4230,1235744575.5222693
4243,0.0
4354,0.0
4480,0.0
2,1, 1,21, 0,17, 0.00,60.00,WinterDesignDay
10,72278.46160731249
46,0.0
70,0.0
345,0.0
992,0.0
1016,0.0
1496,1230298239.8062266
1532,0.0
1556,0.0
2227,72000.0
2365,833388.9120312311
4121,278.46160731243688
4133,40.35550178821832
4170,146.49394504991597
4230,1229464850.8941954
4243,0.0
4354,0.0
4480,0.0
2,1, 1,21, 0,18, 0.00,60.00,WinterDesignDay
10,72277.9560147438
46,0.0
70,0.0
345,0.0
992,0.0
1016,0.0
1496,1225533037.7372339
1532,0.0
1556,0.0
2227,72000.0
2365,579580.7331678427
4121,277.9560147437206
4133,40.34775657101287
4170,146.49394504991597
4230,1224953457.004066
4243,0.0
4354,0.0
4480,0.0
2,1, 1,21, 0,19, 0.00,60.00,WinterDesignDay
10,72277.60002574402
46,0.0
70,0.0
345,0.0
992,0.0
1016,0.0
1496,1222610579.1726833
1532,0.0
1556,0.0
2227,72000.0
2365,833354.0062600449
4121,277.6000257439622
4133,40.34217952920525
4170,146.49394504991597
4230,1221777225.166423
4243,0.0
4354,0.0
4480,0.0
2,1, 1,21, 0,20, 0.00,60.00,WinterDesignDay
10,72277.33767154631
46,0.0
70,0.0
345,0.0
992,0.0
1016,0.0
1496,1220293627.2673367
1532,0.0
1556,0.0
2227,72000.0
2365,833393.0518770577
4121,277.33767154625516
4133,40.338352102689288
4170,146.49394504991597
4230,1219460234.2154597
4243,0.0
4354,0.0
4480,0.0
2,1, 1,21, 0,21, 0.00,60.00,WinterDesignDay
10,72277.14106990917
46,0.0
70,0.0
345,0.0
992,0.0
1016,0.0
1496,1218378379.2600189
1532,0.0
1556,0.0
2227,72000.0
2365,833433.680605522
4121,277.14106990910309
4133,40.33547891012003
4170,146.49394504991597
4230,1217544945.5794132
4243,0.0
4354,0.0
4480,0.0
2,1, 1,21, 0,22, 0.00,60.00,WinterDesignDay
10,846476.4329052651
46,0.0
70,0.0
345,0.0
992,0.0
1016,0.0
1496,999277248.5695913
1532,0.0
1556,0.0
2227,846199.482948263
2365,833470.575272532
4121,276.9499570023281
4133,40.292924887687757
4170,146.49394504991597
4230,998443777.9943187
4243,0.0
4354,0.0
4480,0.0
2,1, 1,21, 0,23, 0.00,60.00,WinterDesignDay
10,72187.49218107108
46,0.0
70,0.0
345,0.0
992,0.0
1016,0.0
1496,439184569.9305605
1532,0.0
1556,0.0
2227,72000.0
2365,773920.6077414202
4121,187.49218107100899
4133,40.308449869960458
4170,146.49394504991597
4230,438410649.3228192
4243,0.0
4354,0.0
4480,0.0
2,1, 1,21, 0,24, 0.00,60.00,WinterDesignDay
10,72200.98331323687
46,0.0
70,0.0
345,0.0
992,0.0
1016,0.0
1496,557661044.8912438
1532,0.0
1556,0.0
2227,72000.0
2365,639194.398375778
4121,200.98331323678785
4133,40.44996323986379
4170,146.49394504991597
4230,557021850.4928681
4243,0.0
4354,0.0
4480,0.0
1,SACRAMENTO-EXECUTIVE-ARP AUG CLG 0.4% CONDNS DB=>MCWB,  38.50,-121.50,  -8.00,   5.00
2,1, 8,21, 0, 1, 0.00,60.00,SummerDesignDay
10,696862222.5387237
46,249737579.99999974
70,96701579.99999997
345,153035999.9999997
992,231449399.99999977
1016,231449399.99999977
1496,63914386.747765127
1532,57764642.17263899
1556,57764642.17263899
2227,17819923.111017195
2365,6149744.575126131
4121,240.98352904740239
4133,40.379120030184029
4170,146.49394504991597
4230,0.0
4243,0.0
4354,197855078.44417728
4480,0.0
2,1, 8,21, 0, 2, 0.00,60.00,SummerDesignDay
10,684622369.4610758
46,249737579.99999974
70,96701579.99999997
345,153035999.9999997
992,231449399.99999977
1016,231449399.99999977
1496,64091480.38985572
1532,57764642.17263899
1556,57764642.17263899
2227,18746984.64314512
2365,6326838.217216736
4121,238.4488025762383
4133,40.391711712532828
4170,146.49394504991597
4230,0.0
4243,0.0
4354,184688166.36912794
4480,0.0
2,1, 8,21, 0, 3, 0.00,60.00,SummerDesignDay
10,674760451.5380478
46,249737579.99999974